# vtk DataFile Version 2.0
MEF - Elasticidade Plana 2D
ASCII
DATASET UNSTRUCTURED_GRID
POINTS       15 float
  0.00000000E+00  0.00000000E+00  0.00000000E+00
  0.50000000E+00  0.00000000E+00  0.00000000E+00
  0.10000000E+01  0.00000000E+00  0.00000000E+00
  0.15000000E+01  0.00000000E+00  0.00000000E+00
  0.20000000E+01  0.00000000E+00  0.00000000E+00
  0.00000000E+00  0.50000000E+00  0.00000000E+00
  0.50000000E+00  0.50000000E+00  0.00000000E+00
  0.10000000E+01  0.50000000E+00  0.00000000E+00
  0.15000000E+01  0.50000000E+00  0.00000000E+00
  0.20000000E+01  0.50000000E+00  0.00000000E+00
  0.00000000E+00  0.10000000E+01  0.00000000E+00
  0.50000000E+00  0.10000000E+01  0.00000000E+00
  0.10000000E+01  0.10000000E+01  0.00000000E+00
  0.15000000E+01  0.10000000E+01  0.00000000E+00
  0.20000000E+01  0.10000000E+01  0.00000000E+00
CELLS       16      64
       3       0       1       6
       3       0       6       5
       3       1       2       7
       3       1       7       6
       3       2       3       8
       3       2       8       7
       3       3       4       9
       3       3       9       8
       3       5       6      11
       3       5      11      10
       3       6       7      12
       3       6      12      11
       3       7       8      13
       3       7      13      12
       3       8       9      14
       3       8      14      13
CELL_TYPES       16
 5
 5
 5
 5
 5
 5
 5
 5
 5
 5
 5
 5
 5
 5
 5
 5
CELL_DATA       16
SCALARS sigma_x float 1
LOOKUP_TABLE default
  0.49999998E+02
  0.49999999E+02
  0.49999998E+02
  0.50000000E+02
  0.50000002E+02
  0.50000001E+02
  0.50000000E+02
  0.50000001E+02
  0.49999997E+02
  0.50000001E+02
  0.50000002E+02
  0.50000002E+02
  0.50000001E+02
  0.49999999E+02
  0.50000001E+02
  0.49999998E+02
SCALARS sigma_y float 1
LOOKUP_TABLE default
  0.99999995E+02
  0.10000000E+03
  0.10000000E+03
  0.99999996E+02
  0.10000000E+03
  0.10000000E+03
  0.10000000E+03
  0.99999999E+02
  0.99999998E+02
  0.10000000E+03
  0.10000000E+03
  0.99999999E+02
  0.10000000E+03
  0.10000000E+03
  0.10000000E+03
  0.10000000E+03
SCALARS tau_xy float 1
LOOKUP_TABLE default
 -0.84226938E-06
 -0.33585523E-05
  0.50421546E-06
  0.10568893E-05
  0.80388599E-07
 -0.19404330E-06
  0.11703363E-05
  0.20386958E-05
 -0.20634661E-05
 -0.41711026E-05
  0.35143450E-05
  0.39474043E-05
  0.40228999E-06
  0.81324206E-06
  0.19688610E-05
  0.30104755E-05
POINT_DATA       15
VECTORS Deslocamentos float
  0.00000000E+00  0.00000000E+00  0.00000000E+00
  0.99999998E-02  0.00000000E+00  0.00000000E+00
  0.19999999E-01  0.00000000E+00  0.00000000E+00
  0.30000000E-01  0.00000000E+00  0.00000000E+00
  0.39999999E-01  0.00000000E+00  0.00000000E+00
  0.00000000E+00  0.42500002E-01  0.00000000E+00
  0.99999987E-02  0.42499998E-01  0.00000000E+00
  0.20000000E-01  0.42500000E-01  0.00000000E+00
  0.30000000E-01  0.42500000E-01  0.00000000E+00
  0.40000000E-01  0.42500002E-01  0.00000000E+00
  0.00000000E+00  0.85000003E-01  0.00000000E+00
  0.10000000E-01  0.84999997E-01  0.00000000E+00
  0.20000002E-01  0.85000001E-01  0.00000000E+00
  0.30000001E-01  0.85000000E-01  0.00000000E+00
  0.40000001E-01  0.85000002E-01  0.00000000E+00
