# vtk DataFile Version 2.0
MEF - Elasticidade Plana 2D
ASCII
DATASET UNSTRUCTURED_GRID
POINTS       15 float
  0.00000000E+00  0.00000000E+00  0.00000000E+00
  0.50000000E+00  0.00000000E+00  0.00000000E+00
  0.10000000E+01  0.00000000E+00  0.00000000E+00
  0.15000000E+01  0.00000000E+00  0.00000000E+00
  0.20000000E+01  0.00000000E+00  0.00000000E+00
  0.00000000E+00  0.50000000E+00  0.00000000E+00
  0.50000000E+00  0.50000000E+00  0.00000000E+00
  0.10000000E+01  0.50000000E+00  0.00000000E+00
  0.15000000E+01  0.50000000E+00  0.00000000E+00
  0.20000000E+01  0.50000000E+00  0.00000000E+00
  0.00000000E+00  0.10000000E+01  0.00000000E+00
  0.50000000E+00  0.10000000E+01  0.00000000E+00
  0.10000000E+01  0.10000000E+01  0.00000000E+00
  0.15000000E+01  0.10000000E+01  0.00000000E+00
  0.20000000E+01  0.10000000E+01  0.00000000E+00
CELLS       16      64
       3       0       1       6
       3       0       6       5
       3       1       2       7
       3       1       7       6
       3       2       3       8
       3       2       8       7
       3       3       4       9
       3       3       9       8
       3       5       6      11
       3       5      11      10
       3       6       7      12
       3       6      12      11
       3       7       8      13
       3       7      13      12
       3       8       9      14
       3       8      14      13
CELL_TYPES       16
 5
 5
 5
 5
 5
 5
 5
 5
 5
 5
 5
 5
 5
 5
 5
 5
CELL_DATA       16
SCALARS sigma_x float 1
LOOKUP_TABLE default
  0.10000000E+03
  0.10000000E+03
  0.10000000E+03
  0.10000000E+03
  0.10000000E+03
  0.10000000E+03
  0.99999999E+02
  0.10000000E+03
  0.10000000E+03
  0.10000000E+03
  0.10000000E+03
  0.10000000E+03
  0.10000000E+03
  0.10000000E+03
  0.10000000E+03
  0.99999999E+02
SCALARS sigma_y float 1
LOOKUP_TABLE default
  0.21795096E-06
 -0.64833522E-07
 -0.40048139E-06
  0.25931566E-06
  0.50891096E-06
 -0.42570944E-06
 -0.55917776E-06
  0.52070772E-06
 -0.18782244E-06
  0.96520054E-07
  0.36783214E-06
 -0.22775555E-06
 -0.49562227E-06
  0.39236289E-06
  0.54183519E-06
 -0.50844905E-06
SCALARS tau_xy float 1
LOOKUP_TABLE default
 -0.98456665E-07
  0.44651306E-07
  0.20389255E-06
 -0.14787810E-06
 -0.26792483E-06
  0.23311862E-06
  0.29677957E-06
 -0.28357306E-06
  0.10267014E-06
 -0.37462917E-07
 -0.18470672E-06
  0.13427560E-06
  0.25434193E-06
 -0.21793091E-06
 -0.29107721E-06
  0.27055781E-06
POINT_DATA       15
VECTORS Deslocamentos float
  0.00000000E+00  0.00000000E+00  0.00000000E+00
  0.50000000E-01 -0.46031627E-10  0.00000000E+00
  0.10000000E+00  0.76570445E-10  0.00000000E+00
  0.15000000E+00 -0.91184068E-10  0.00000000E+00
  0.20000000E+00  0.99304954E-10  0.00000000E+00
  0.00000000E+00 -0.15000000E-01  0.00000000E+00
  0.50000000E-01 -0.15000000E-01  0.00000000E+00
  0.10000000E+00 -0.15000000E-01  0.00000000E+00
  0.15000000E+00 -0.15000000E-01  0.00000000E+00
  0.20000000E+00 -0.15000000E-01  0.00000000E+00
  0.00000000E+00 -0.30000000E-01  0.00000000E+00
  0.50000000E-01 -0.30000000E-01  0.00000000E+00
  0.10000000E+00 -0.30000000E-01  0.00000000E+00
  0.15000000E+00 -0.30000000E-01  0.00000000E+00
  0.20000000E+00 -0.30000000E-01  0.00000000E+00
