# vtk DataFile Version 2.0
MEF - Elasticidade Plana 2D
ASCII
DATASET UNSTRUCTURED_GRID
POINTS      121 float
  0.00000000E+00  0.00000000E+00  0.00000000E+00
  0.00000000E+00  0.20000000E+00  0.00000000E+00
  0.00000000E+00  0.40000000E+00  0.00000000E+00
  0.00000000E+00  0.60000000E+00  0.00000000E+00
  0.00000000E+00  0.80000000E+00  0.00000000E+00
  0.00000000E+00  0.10000000E+01  0.00000000E+00
  0.00000000E+00  0.12000000E+01  0.00000000E+00
  0.00000000E+00  0.14000000E+01  0.00000000E+00
  0.00000000E+00  0.16000000E+01  0.00000000E+00
  0.00000000E+00  0.18000000E+01  0.00000000E+00
  0.00000000E+00  0.20000000E+01  0.00000000E+00
  0.20000000E+00  0.00000000E+00  0.00000000E+00
  0.20000000E+00  0.20000000E+00  0.00000000E+00
  0.20000000E+00  0.40000000E+00  0.00000000E+00
  0.20000000E+00  0.60000000E+00  0.00000000E+00
  0.20000000E+00  0.80000000E+00  0.00000000E+00
  0.20000000E+00  0.10000000E+01  0.00000000E+00
  0.20000000E+00  0.12000000E+01  0.00000000E+00
  0.20000000E+00  0.14000000E+01  0.00000000E+00
  0.20000000E+00  0.16000000E+01  0.00000000E+00
  0.20000000E+00  0.18000000E+01  0.00000000E+00
  0.20000000E+00  0.20000000E+01  0.00000000E+00
  0.40000000E+00  0.00000000E+00  0.00000000E+00
  0.40000000E+00  0.20000000E+00  0.00000000E+00
  0.40000000E+00  0.40000000E+00  0.00000000E+00
  0.40000000E+00  0.60000000E+00  0.00000000E+00
  0.40000000E+00  0.80000000E+00  0.00000000E+00
  0.40000000E+00  0.10000000E+01  0.00000000E+00
  0.40000000E+00  0.12000000E+01  0.00000000E+00
  0.40000000E+00  0.14000000E+01  0.00000000E+00
  0.40000000E+00  0.16000000E+01  0.00000000E+00
  0.40000000E+00  0.18000000E+01  0.00000000E+00
  0.40000000E+00  0.20000000E+01  0.00000000E+00
  0.60000000E+00  0.00000000E+00  0.00000000E+00
  0.60000000E+00  0.20000000E+00  0.00000000E+00
  0.60000000E+00  0.40000000E+00  0.00000000E+00
  0.60000000E+00  0.60000000E+00  0.00000000E+00
  0.60000000E+00  0.80000000E+00  0.00000000E+00
  0.60000000E+00  0.10000000E+01  0.00000000E+00
  0.60000000E+00  0.12000000E+01  0.00000000E+00
  0.60000000E+00  0.14000000E+01  0.00000000E+00
  0.60000000E+00  0.16000000E+01  0.00000000E+00
  0.60000000E+00  0.18000000E+01  0.00000000E+00
  0.60000000E+00  0.20000000E+01  0.00000000E+00
  0.80000000E+00  0.00000000E+00  0.00000000E+00
  0.80000000E+00  0.20000000E+00  0.00000000E+00
  0.80000000E+00  0.40000000E+00  0.00000000E+00
  0.80000000E+00  0.60000000E+00  0.00000000E+00
  0.80000000E+00  0.80000000E+00  0.00000000E+00
  0.80000000E+00  0.10000000E+01  0.00000000E+00
  0.80000000E+00  0.12000000E+01  0.00000000E+00
  0.80000000E+00  0.14000000E+01  0.00000000E+00
  0.80000000E+00  0.16000000E+01  0.00000000E+00
  0.80000000E+00  0.18000000E+01  0.00000000E+00
  0.80000000E+00  0.20000000E+01  0.00000000E+00
  0.10000000E+01  0.00000000E+00  0.00000000E+00
  0.10000000E+01  0.20000000E+00  0.00000000E+00
  0.10000000E+01  0.40000000E+00  0.00000000E+00
  0.10000000E+01  0.60000000E+00  0.00000000E+00
  0.10000000E+01  0.80000000E+00  0.00000000E+00
  0.10000000E+01  0.10000000E+01  0.00000000E+00
  0.10000000E+01  0.12000000E+01  0.00000000E+00
  0.10000000E+01  0.14000000E+01  0.00000000E+00
  0.10000000E+01  0.16000000E+01  0.00000000E+00
  0.10000000E+01  0.18000000E+01  0.00000000E+00
  0.10000000E+01  0.20000000E+01  0.00000000E+00
  0.12000000E+01  0.00000000E+00  0.00000000E+00
  0.12000000E+01  0.20000000E+00  0.00000000E+00
  0.12000000E+01  0.40000000E+00  0.00000000E+00
  0.12000000E+01  0.60000000E+00  0.00000000E+00
  0.12000000E+01  0.80000000E+00  0.00000000E+00
  0.12000000E+01  0.10000000E+01  0.00000000E+00
  0.12000000E+01  0.12000000E+01  0.00000000E+00
  0.12000000E+01  0.14000000E+01  0.00000000E+00
  0.12000000E+01  0.16000000E+01  0.00000000E+00
  0.12000000E+01  0.18000000E+01  0.00000000E+00
  0.12000000E+01  0.20000000E+01  0.00000000E+00
  0.14000000E+01  0.00000000E+00  0.00000000E+00
  0.14000000E+01  0.20000000E+00  0.00000000E+00
  0.14000000E+01  0.40000000E+00  0.00000000E+00
  0.14000000E+01  0.60000000E+00  0.00000000E+00
  0.14000000E+01  0.80000000E+00  0.00000000E+00
  0.14000000E+01  0.10000000E+01  0.00000000E+00
  0.14000000E+01  0.12000000E+01  0.00000000E+00
  0.14000000E+01  0.14000000E+01  0.00000000E+00
  0.14000000E+01  0.16000000E+01  0.00000000E+00
  0.14000000E+01  0.18000000E+01  0.00000000E+00
  0.14000000E+01  0.20000000E+01  0.00000000E+00
  0.16000000E+01  0.00000000E+00  0.00000000E+00
  0.16000000E+01  0.20000000E+00  0.00000000E+00
  0.16000000E+01  0.40000000E+00  0.00000000E+00
  0.16000000E+01  0.60000000E+00  0.00000000E+00
  0.16000000E+01  0.80000000E+00  0.00000000E+00
  0.16000000E+01  0.10000000E+01  0.00000000E+00
  0.16000000E+01  0.12000000E+01  0.00000000E+00
  0.16000000E+01  0.14000000E+01  0.00000000E+00
  0.16000000E+01  0.16000000E+01  0.00000000E+00
  0.16000000E+01  0.18000000E+01  0.00000000E+00
  0.16000000E+01  0.20000000E+01  0.00000000E+00
  0.18000000E+01  0.00000000E+00  0.00000000E+00
  0.18000000E+01  0.20000000E+00  0.00000000E+00
  0.18000000E+01  0.40000000E+00  0.00000000E+00
  0.18000000E+01  0.60000000E+00  0.00000000E+00
  0.18000000E+01  0.80000000E+00  0.00000000E+00
  0.18000000E+01  0.10000000E+01  0.00000000E+00
  0.18000000E+01  0.12000000E+01  0.00000000E+00
  0.18000000E+01  0.14000000E+01  0.00000000E+00
  0.18000000E+01  0.16000000E+01  0.00000000E+00
  0.18000000E+01  0.18000000E+01  0.00000000E+00
  0.18000000E+01  0.20000000E+01  0.00000000E+00
  0.20000000E+01  0.00000000E+00  0.00000000E+00
  0.20000000E+01  0.20000000E+00  0.00000000E+00
  0.20000000E+01  0.40000000E+00  0.00000000E+00
  0.20000000E+01  0.60000000E+00  0.00000000E+00
  0.20000000E+01  0.80000000E+00  0.00000000E+00
  0.20000000E+01  0.10000000E+01  0.00000000E+00
  0.20000000E+01  0.12000000E+01  0.00000000E+00
  0.20000000E+01  0.14000000E+01  0.00000000E+00
  0.20000000E+01  0.16000000E+01  0.00000000E+00
  0.20000000E+01  0.18000000E+01  0.00000000E+00
  0.20000000E+01  0.20000000E+01  0.00000000E+00
CELLS      200     800
       3       0      11      12
       3       0      12       1
       3       1      12      13
       3       1      13       2
       3       2      13      14
       3       2      14       3
       3       3      14      15
       3       3      15       4
       3       4      15      16
       3       4      16       5
       3       5      16      17
       3       5      17       6
       3       6      17      18
       3       6      18       7
       3       7      18      19
       3       7      19       8
       3       8      19      20
       3       8      20       9
       3       9      20      21
       3       9      21      10
       3      11      22      23
       3      11      23      12
       3      12      23      24
       3      12      24      13
       3      13      24      25
       3      13      25      14
       3      14      25      26
       3      14      26      15
       3      15      26      27
       3      15      27      16
       3      16      27      28
       3      16      28      17
       3      17      28      29
       3      17      29      18
       3      18      29      30
       3      18      30      19
       3      19      30      31
       3      19      31      20
       3      20      31      32
       3      20      32      21
       3      22      33      34
       3      22      34      23
       3      23      34      35
       3      23      35      24
       3      24      35      36
       3      24      36      25
       3      25      36      37
       3      25      37      26
       3      26      37      38
       3      26      38      27
       3      27      38      39
       3      27      39      28
       3      28      39      40
       3      28      40      29
       3      29      40      41
       3      29      41      30
       3      30      41      42
       3      30      42      31
       3      31      42      43
       3      31      43      32
       3      33      44      45
       3      33      45      34
       3      34      45      46
       3      34      46      35
       3      35      46      47
       3      35      47      36
       3      36      47      48
       3      36      48      37
       3      37      48      49
       3      37      49      38
       3      38      49      50
       3      38      50      39
       3      39      50      51
       3      39      51      40
       3      40      51      52
       3      40      52      41
       3      41      52      53
       3      41      53      42
       3      42      53      54
       3      42      54      43
       3      44      55      56
       3      44      56      45
       3      45      56      57
       3      45      57      46
       3      46      57      58
       3      46      58      47
       3      47      58      59
       3      47      59      48
       3      48      59      60
       3      48      60      49
       3      49      60      61
       3      49      61      50
       3      50      61      62
       3      50      62      51
       3      51      62      63
       3      51      63      52
       3      52      63      64
       3      52      64      53
       3      53      64      65
       3      53      65      54
       3      55      66      67
       3      55      67      56
       3      56      67      68
       3      56      68      57
       3      57      68      69
       3      57      69      58
       3      58      69      70
       3      58      70      59
       3      59      70      71
       3      59      71      60
       3      60      71      72
       3      60      72      61
       3      61      72      73
       3      61      73      62
       3      62      73      74
       3      62      74      63
       3      63      74      75
       3      63      75      64
       3      64      75      76
       3      64      76      65
       3      66      77      78
       3      66      78      67
       3      67      78      79
       3      67      79      68
       3      68      79      80
       3      68      80      69
       3      69      80      81
       3      69      81      70
       3      70      81      82
       3      70      82      71
       3      71      82      83
       3      71      83      72
       3      72      83      84
       3      72      84      73
       3      73      84      85
       3      73      85      74
       3      74      85      86
       3      74      86      75
       3      75      86      87
       3      75      87      76
       3      77      88      89
       3      77      89      78
       3      78      89      90
       3      78      90      79
       3      79      90      91
       3      79      91      80
       3      80      91      92
       3      80      92      81
       3      81      92      93
       3      81      93      82
       3      82      93      94
       3      82      94      83
       3      83      94      95
       3      83      95      84
       3      84      95      96
       3      84      96      85
       3      85      96      97
       3      85      97      86
       3      86      97      98
       3      86      98      87
       3      88      99     100
       3      88     100      89
       3      89     100     101
       3      89     101      90
       3      90     101     102
       3      90     102      91
       3      91     102     103
       3      91     103      92
       3      92     103     104
       3      92     104      93
       3      93     104     105
       3      93     105      94
       3      94     105     106
       3      94     106      95
       3      95     106     107
       3      95     107      96
       3      96     107     108
       3      96     108      97
       3      97     108     109
       3      97     109      98
       3      99     110     111
       3      99     111     100
       3     100     111     112
       3     100     112     101
       3     101     112     113
       3     101     113     102
       3     102     113     114
       3     102     114     103
       3     103     114     115
       3     103     115     104
       3     104     115     116
       3     104     116     105
       3     105     116     117
       3     105     117     106
       3     106     117     118
       3     106     118     107
       3     107     118     119
       3     107     119     108
       3     108     119     120
       3     108     120     109
CELL_TYPES      200
 5
 5
 5
 5
 5
 5
 5
 5
 5
 5
 5
 5
 5
 5
 5
 5
 5
 5
 5
 5
 5
 5
 5
 5
 5
 5
 5
 5
 5
 5
 5
 5
 5
 5
 5
 5
 5
 5
 5
 5
 5
 5
 5
 5
 5
 5
 5
 5
 5
 5
 5
 5
 5
 5
 5
 5
 5
 5
 5
 5
 5
 5
 5
 5
 5
 5
 5
 5
 5
 5
 5
 5
 5
 5
 5
 5
 5
 5
 5
 5
 5
 5
 5
 5
 5
 5
 5
 5
 5
 5
 5
 5
 5
 5
 5
 5
 5
 5
 5
 5
 5
 5
 5
 5
 5
 5
 5
 5
 5
 5
 5
 5
 5
 5
 5
 5
 5
 5
 5
 5
 5
 5
 5
 5
 5
 5
 5
 5
 5
 5
 5
 5
 5
 5
 5
 5
 5
 5
 5
 5
 5
 5
 5
 5
 5
 5
 5
 5
 5
 5
 5
 5
 5
 5
 5
 5
 5
 5
 5
 5
 5
 5
 5
 5
 5
 5
 5
 5
 5
 5
 5
 5
 5
 5
 5
 5
 5
 5
 5
 5
 5
 5
 5
 5
 5
 5
 5
 5
 5
 5
 5
 5
 5
 5
 5
 5
 5
 5
 5
 5
CELL_DATA      200
SCALARS sigma_x float 1
LOOKUP_TABLE default
 -0.99999998E+02
 -0.10000000E+03
 -0.10000000E+03
 -0.10000000E+03
 -0.10000000E+03
 -0.10000000E+03
 -0.10000000E+03
 -0.10000000E+03
 -0.10000000E+03
 -0.10000000E+03
 -0.10000000E+03
 -0.10000000E+03
 -0.10000000E+03
 -0.10000000E+03
 -0.10000000E+03
 -0.10000000E+03
 -0.10000000E+03
 -0.10000000E+03
 -0.10000000E+03
 -0.99999996E+02
 -0.10000000E+03
 -0.99999997E+02
 -0.99999997E+02
 -0.99999997E+02
 -0.99999998E+02
 -0.10000000E+03
 -0.99999999E+02
 -0.10000000E+03
 -0.10000000E+03
 -0.10000000E+03
 -0.10000000E+03
 -0.10000000E+03
 -0.10000000E+03
 -0.10000000E+03
 -0.10000000E+03
 -0.10000000E+03
 -0.10000000E+03
 -0.99999998E+02
 -0.99999999E+02
 -0.99999998E+02
 -0.10000000E+03
 -0.99999999E+02
 -0.99999999E+02
 -0.99999998E+02
 -0.99999998E+02
 -0.99999998E+02
 -0.99999998E+02
 -0.10000000E+03
 -0.10000000E+03
 -0.10000000E+03
 -0.10000000E+03
 -0.99999999E+02
 -0.10000000E+03
 -0.99999998E+02
 -0.99999999E+02
 -0.99999998E+02
 -0.99999999E+02
 -0.10000000E+03
 -0.10000000E+03
 -0.10000000E+03
 -0.99999998E+02
 -0.10000000E+03
 -0.10000000E+03
 -0.10000000E+03
 -0.10000000E+03
 -0.99999999E+02
 -0.10000000E+03
 -0.10000000E+03
 -0.10000000E+03
 -0.10000000E+03
 -0.10000000E+03
 -0.99999999E+02
 -0.99999999E+02
 -0.99999999E+02
 -0.99999998E+02
 -0.99999998E+02
 -0.99999998E+02
 -0.10000000E+03
 -0.10000000E+03
 -0.10000000E+03
 -0.10000000E+03
 -0.10000000E+03
 -0.10000000E+03
 -0.10000000E+03
 -0.10000000E+03
 -0.10000000E+03
 -0.10000000E+03
 -0.10000000E+03
 -0.10000000E+03
 -0.10000000E+03
 -0.10000000E+03
 -0.99999999E+02
 -0.99999999E+02
 -0.99999996E+02
 -0.99999996E+02
 -0.99999999E+02
 -0.99999999E+02
 -0.10000000E+03
 -0.10000000E+03
 -0.10000000E+03
 -0.99999999E+02
 -0.99999999E+02
 -0.10000000E+03
 -0.10000000E+03
 -0.10000000E+03
 -0.10000000E+03
 -0.10000000E+03
 -0.99999999E+02
 -0.99999998E+02
 -0.10000000E+03
 -0.10000000E+03
 -0.10000000E+03
 -0.99999998E+02
 -0.99999999E+02
 -0.10000000E+03
 -0.99999999E+02
 -0.99999999E+02
 -0.10000000E+03
 -0.10000000E+03
 -0.10000000E+03
 -0.99999999E+02
 -0.99999999E+02
 -0.10000000E+03
 -0.99999999E+02
 -0.99999999E+02
 -0.10000000E+03
 -0.10000000E+03
 -0.10000000E+03
 -0.10000000E+03
 -0.10000000E+03
 -0.10000000E+03
 -0.99999999E+02
 -0.10000000E+03
 -0.99999999E+02
 -0.99999999E+02
 -0.99999997E+02
 -0.99999998E+02
 -0.99999998E+02
 -0.99999997E+02
 -0.10000000E+03
 -0.99999999E+02
 -0.99999998E+02
 -0.99999999E+02
 -0.99999997E+02
 -0.99999997E+02
 -0.10000000E+03
 -0.10000000E+03
 -0.10000000E+03
 -0.10000000E+03
 -0.10000000E+03
 -0.10000000E+03
 -0.10000000E+03
 -0.10000000E+03
 -0.10000000E+03
 -0.99999998E+02
 -0.99999999E+02
 -0.99999999E+02
 -0.10000000E+03
 -0.99999998E+02
 -0.10000000E+03
 -0.99999999E+02
 -0.99999999E+02
 -0.99999999E+02
 -0.10000000E+03
 -0.99999999E+02
 -0.10000000E+03
 -0.99999999E+02
 -0.10000000E+03
 -0.10000000E+03
 -0.10000000E+03
 -0.10000000E+03
 -0.10000000E+03
 -0.10000000E+03
 -0.10000000E+03
 -0.99999998E+02
 -0.10000000E+03
 -0.10000000E+03
 -0.99999999E+02
 -0.99999998E+02
 -0.99999997E+02
 -0.99999997E+02
 -0.99999998E+02
 -0.99999997E+02
 -0.99999999E+02
 -0.99999997E+02
 -0.10000000E+03
 -0.10000000E+03
 -0.10000000E+03
 -0.10000000E+03
 -0.10000000E+03
 -0.10000000E+03
 -0.10000000E+03
 -0.10000000E+03
 -0.10000000E+03
 -0.10000000E+03
 -0.10000000E+03
 -0.10000000E+03
 -0.10000000E+03
 -0.10000000E+03
 -0.99999995E+02
SCALARS sigma_y float 1
LOOKUP_TABLE default
  0.40018747E-06
  0.68331877E-06
  0.20953580E-06
  0.70252415E-06
 -0.21979282E-05
 -0.67963697E-07
 -0.20360775E-05
 -0.24142838E-05
 -0.29896368E-06
 -0.30355592E-05
  0.54486640E-06
 -0.32183351E-05
  0.57323015E-06
  0.23710410E-05
  0.29677595E-05
  0.59695150E-05
  0.12004240E-05
  0.23215686E-05
  0.21366821E-05
  0.22972311E-05
  0.85806201E-06
  0.10253493E-05
  0.86604654E-06
  0.14865023E-05
 -0.94156241E-06
 -0.15797224E-05
 -0.11679427E-05
 -0.18883526E-05
 -0.15831906E-05
 -0.45257111E-06
 -0.70344265E-06
 -0.22613614E-06
  0.39264874E-06
 -0.27810814E-06
 -0.39734993E-06
  0.32314257E-05
 -0.22174203E-05
  0.30238069E-05
 -0.38404355E-06
  0.26797210E-05
  0.36583938E-05
  0.12202683E-05
  0.59133131E-06
  0.30133523E-06
  0.61298304E-06
 -0.72000326E-06
 -0.16442523E-05
 -0.20314912E-05
 -0.20616411E-05
 -0.10553680E-05
 -0.24262690E-05
  0.14388085E-07
 -0.17414375E-05
  0.26507907E-05
 -0.15718513E-05
  0.17239942E-05
  0.43082556E-06
 -0.13300587E-05
 -0.24768219E-06
 -0.17988256E-05
  0.35911773E-05
  0.34403680E-05
  0.34461226E-05
  0.17520872E-06
 -0.34781230E-07
  0.46863107E-07
 -0.89561823E-06
 -0.23451325E-05
 -0.17521592E-05
 -0.16004685E-05
 -0.20485478E-05
 -0.16547836E-05
 -0.17825729E-05
 -0.11018626E-05
 -0.48572069E-06
 -0.83656757E-06
 -0.11442262E-05
 -0.49876655E-06
 -0.15596690E-05
 -0.35845328E-06
  0.14575836E-05
  0.28572564E-05
  0.31527935E-05
  0.42201907E-05
  0.87929417E-06
 -0.20633690E-06
 -0.89438549E-06
 -0.11526072E-05
 -0.15630319E-05
 -0.18231657E-05
 -0.24621872E-05
 -0.15081803E-05
 -0.35103625E-07
 -0.27773784E-06
 -0.12573489E-05
 -0.92698368E-06
  0.81222069E-07
 -0.27582670E-05
  0.44611319E-07
 -0.13420231E-05
  0.12659167E-05
  0.24152423E-05
  0.18049759E-06
  0.25767828E-05
 -0.25702526E-06
  0.16428186E-05
 -0.17748725E-07
 -0.14654631E-06
  0.15595397E-05
 -0.17581874E-05
  0.33352755E-07
 -0.22349126E-05
  0.52307628E-06
 -0.18884912E-06
 -0.12362011E-05
 -0.23441434E-05
 -0.19916479E-05
 -0.56654610E-06
 -0.51800195E-06
 -0.48041318E-06
 -0.95139522E-06
  0.13785268E-05
 -0.25214616E-05
  0.56337976E-06
  0.10680102E-05
  0.44872262E-06
  0.15010804E-05
 -0.12512950E-06
  0.10374595E-05
  0.36762362E-06
  0.12586355E-05
  0.56371351E-06
 -0.15855174E-05
  0.27736439E-06
  0.46922305E-06
 -0.24394617E-06
 -0.17842186E-05
 -0.16220207E-05
  0.12297759E-05
 -0.53881418E-06
 -0.44523955E-05
 -0.37249625E-06
 -0.33973728E-05
 -0.12108125E-05
 -0.42409667E-08
  0.26832350E-06
  0.18171849E-05
  0.11042649E-05
  0.20859411E-05
  0.49053138E-06
  0.38484137E-05
  0.53708680E-06
  0.30084782E-05
 -0.15488209E-05
  0.33888945E-05
  0.57379806E-06
  0.20769572E-06
 -0.29507469E-05
  0.24887102E-05
 -0.93116606E-06
 -0.44118756E-05
 -0.44181725E-05
 -0.46263545E-05
 -0.40316889E-05
 -0.47248295E-06
 -0.15414731E-05
  0.14570681E-05
  0.10646673E-05
  0.17643264E-06
  0.17639040E-05
  0.31877462E-05
  0.34220080E-05
  0.56542390E-05
  0.36411577E-05
  0.71624352E-05
  0.21489089E-05
  0.35609231E-05
  0.30265506E-06
  0.11214866E-05
  0.32361415E-05
 -0.13932377E-05
 -0.38087556E-05
 -0.17073298E-05
 -0.47872669E-05
  0.34312871E-06
 -0.10173381E-05
 -0.28696144E-06
  0.39426978E-06
 -0.22480390E-05
  0.94473251E-06
  0.45247820E-06
  0.29934754E-05
  0.57572981E-05
  0.48615330E-05
  0.72473267E-05
  0.56416123E-05
  0.18723973E-05
  0.33990359E-05
  0.28872818E-05
  0.24129778E-05
SCALARS tau_xy float 1
LOOKUP_TABLE default
 -0.74238737E-06
 -0.39906067E-06
 -0.29457590E-06
 -0.49513530E-06
 -0.96869923E-06
 -0.13066526E-05
 -0.95392107E-06
 -0.10474230E-05
 -0.14086077E-05
 -0.42033202E-06
 -0.30154857E-06
  0.70577559E-06
  0.57589815E-07
 -0.85678572E-07
 -0.72487451E-08
 -0.90971021E-06
 -0.12804134E-06
 -0.89503628E-06
  0.19571943E-06
 -0.47344069E-06
  0.27290008E-06
 -0.35506056E-06
  0.18396064E-06
  0.18260239E-06
 -0.73013531E-06
 -0.35655304E-06
 -0.31747552E-06
  0.33819468E-06
 -0.22387827E-06
 -0.63367999E-06
 -0.92649326E-06
 -0.62127715E-06
 -0.13230201E-05
 -0.11686474E-05
 -0.34688126E-06
 -0.14380461E-05
  0.38343395E-06
 -0.17530544E-05
 -0.15158614E-05
 -0.23501405E-05
  0.15425967E-05
  0.15136631E-05
  0.14347392E-05
  0.12905424E-05
  0.90198504E-06
  0.11592215E-05
  0.47489394E-06
  0.11901588E-05
  0.15556666E-05
  0.11879526E-05
  0.10218115E-05
  0.16532922E-06
  0.49046037E-06
 -0.90965777E-06
 -0.17909010E-06
 -0.11059190E-05
 -0.10709401E-06
  0.81173260E-06
 -0.48583687E-06
  0.19535922E-06
  0.25436373E-06
  0.10335853E-05
  0.82259684E-06
  0.11070682E-05
  0.61851256E-06
  0.42527466E-06
 -0.34889308E-06
 -0.70256822E-08
  0.11331840E-05
  0.12517822E-05
  0.12925162E-05
  0.98159042E-06
  0.12187812E-05
  0.91539258E-06
  0.17097662E-05
  0.16283518E-05
  0.15172595E-05
  0.19819222E-05
  0.12302334E-05
  0.99081399E-06
  0.56391974E-06
 -0.12875931E-07
  0.78146162E-06
  0.63815218E-06
 -0.48081926E-06
 -0.46047683E-06
 -0.12916001E-05
 -0.13551874E-05
 -0.90989485E-07
 -0.15979550E-06
  0.28852128E-06
 -0.55018178E-07
  0.82515096E-06
  0.32863712E-06
 -0.17438799E-06
  0.36369262E-06
 -0.52925153E-06
  0.54714719E-06
  0.10165828E-05
  0.13640584E-05
  0.38446334E-06
  0.15863110E-06
 -0.69477682E-07
 -0.34676466E-06
 -0.57271266E-06
 -0.14641632E-05
 -0.23057433E-05
 -0.25528065E-05
 -0.19172717E-05
 -0.74747851E-06
 -0.17541727E-07
  0.32647842E-06
  0.95263417E-06
  0.12302259E-05
  0.10516813E-06
  0.21133239E-06
 -0.38892752E-06
 -0.33087690E-06
  0.22038781E-06
  0.42800487E-06
  0.12356087E-06
 -0.39304404E-06
 -0.44097151E-06
 -0.13227690E-05
 -0.13334731E-05
 -0.87216439E-06
 -0.22558302E-05
 -0.18300736E-05
 -0.19175622E-05
 -0.15968868E-05
  0.28123458E-06
  0.45549425E-07
  0.15432338E-06
 -0.38633754E-06
 -0.68608411E-06
 -0.87974344E-06
 -0.18950885E-05
 -0.19146299E-05
 -0.16236581E-05
 -0.50438528E-06
 -0.33574887E-07
 -0.11094685E-05
 -0.66956257E-06
 -0.14239689E-05
 -0.28415636E-05
 -0.21159159E-05
 -0.32310010E-05
 -0.28964148E-05
 -0.30839787E-05
 -0.26098362E-05
 -0.84812862E-06
  0.29378070E-06
  0.90805160E-06
  0.14870473E-05
  0.12325531E-05
  0.20025989E-05
  0.13985156E-06
  0.11290716E-05
  0.75710098E-06
  0.21398336E-05
  0.97717826E-07
  0.24492581E-07
  0.18705876E-07
  0.19327480E-06
 -0.18262640E-05
 -0.13065450E-05
 -0.18984869E-05
 -0.12817881E-05
 -0.11823650E-05
 -0.16690260E-05
  0.23102498E-07
  0.14241116E-07
  0.13345688E-05
  0.17020898E-05
  0.19915211E-06
  0.16218947E-05
  0.64911073E-06
  0.10372266E-05
  0.11002370E-05
  0.33429719E-06
  0.58793208E-08
  0.74850643E-06
  0.23336487E-06
  0.13293824E-05
 -0.94611828E-06
 -0.66676186E-07
 -0.10039136E-05
 -0.78694605E-06
  0.53320919E-06
 -0.57198817E-06
  0.47842662E-06
  0.86023102E-07
  0.10073939E-05
  0.15493728E-05
 -0.43897606E-06
  0.89532148E-07
  0.22705239E-07
 -0.94086043E-06
  0.91069008E-07
 -0.86990150E-06
SCALARS sigma_z float 1
LOOKUP_TABLE default
 -0.29999999E+02
 -0.30000000E+02
 -0.30000000E+02
 -0.30000000E+02
 -0.30000001E+02
 -0.30000000E+02
 -0.30000001E+02
 -0.30000001E+02
 -0.30000000E+02
 -0.30000002E+02
 -0.30000000E+02
 -0.30000002E+02
 -0.30000000E+02
 -0.30000000E+02
 -0.30000000E+02
 -0.29999998E+02
 -0.30000000E+02
 -0.29999999E+02
 -0.29999999E+02
 -0.29999998E+02
 -0.30000000E+02
 -0.29999999E+02
 -0.29999999E+02
 -0.29999999E+02
 -0.30000000E+02
 -0.30000000E+02
 -0.30000000E+02
 -0.30000001E+02
 -0.30000001E+02
 -0.30000000E+02
 -0.30000001E+02
 -0.30000001E+02
 -0.30000001E+02
 -0.30000001E+02
 -0.30000001E+02
 -0.29999999E+02
 -0.30000002E+02
 -0.29999999E+02
 -0.30000000E+02
 -0.29999999E+02
 -0.29999999E+02
 -0.29999999E+02
 -0.30000000E+02
 -0.29999999E+02
 -0.29999999E+02
 -0.30000000E+02
 -0.30000000E+02
 -0.30000001E+02
 -0.30000001E+02
 -0.30000001E+02
 -0.30000001E+02
 -0.30000000E+02
 -0.30000001E+02
 -0.29999998E+02
 -0.30000000E+02
 -0.29999999E+02
 -0.29999999E+02
 -0.30000001E+02
 -0.30000000E+02
 -0.30000001E+02
 -0.29999998E+02
 -0.30000000E+02
 -0.30000000E+02
 -0.30000000E+02
 -0.30000000E+02
 -0.30000000E+02
 -0.30000000E+02
 -0.30000001E+02
 -0.30000000E+02
 -0.30000001E+02
 -0.30000001E+02
 -0.30000000E+02
 -0.30000000E+02
 -0.30000000E+02
 -0.30000000E+02
 -0.30000000E+02
 -0.30000000E+02
 -0.30000000E+02
 -0.30000001E+02
 -0.30000000E+02
 -0.30000000E+02
 -0.29999999E+02
 -0.29999999E+02
 -0.29999999E+02
 -0.30000000E+02
 -0.30000000E+02
 -0.30000001E+02
 -0.30000000E+02
 -0.30000001E+02
 -0.30000000E+02
 -0.30000001E+02
 -0.30000000E+02
 -0.30000000E+02
 -0.29999999E+02
 -0.29999999E+02
 -0.30000000E+02
 -0.30000000E+02
 -0.30000001E+02
 -0.30000000E+02
 -0.30000001E+02
 -0.29999999E+02
 -0.29999999E+02
 -0.30000000E+02
 -0.30000000E+02
 -0.30000001E+02
 -0.29999999E+02
 -0.30000000E+02
 -0.30000000E+02
 -0.29999999E+02
 -0.30000001E+02
 -0.30000000E+02
 -0.30000001E+02
 -0.29999999E+02
 -0.30000000E+02
 -0.30000000E+02
 -0.30000000E+02
 -0.30000000E+02
 -0.30000000E+02
 -0.30000000E+02
 -0.30000001E+02
 -0.30000000E+02
 -0.29999999E+02
 -0.30000001E+02
 -0.30000000E+02
 -0.29999999E+02
 -0.30000000E+02
 -0.30000000E+02
 -0.30000000E+02
 -0.30000000E+02
 -0.30000000E+02
 -0.30000000E+02
 -0.29999999E+02
 -0.30000000E+02
 -0.30000000E+02
 -0.30000000E+02
 -0.29999999E+02
 -0.30000000E+02
 -0.30000000E+02
 -0.29999999E+02
 -0.30000000E+02
 -0.30000001E+02
 -0.29999999E+02
 -0.30000001E+02
 -0.30000000E+02
 -0.29999999E+02
 -0.30000000E+02
 -0.30000000E+02
 -0.30000000E+02
 -0.30000000E+02
 -0.30000000E+02
 -0.29999999E+02
 -0.30000001E+02
 -0.30000000E+02
 -0.30000000E+02
 -0.29999998E+02
 -0.29999999E+02
 -0.30000000E+02
 -0.30000001E+02
 -0.29999999E+02
 -0.30000001E+02
 -0.30000001E+02
 -0.30000001E+02
 -0.30000001E+02
 -0.30000001E+02
 -0.30000000E+02
 -0.30000001E+02
 -0.29999999E+02
 -0.30000000E+02
 -0.30000001E+02
 -0.30000000E+02
 -0.29999999E+02
 -0.29999999E+02
 -0.29999998E+02
 -0.29999999E+02
 -0.29999997E+02
 -0.30000000E+02
 -0.29999999E+02
 -0.29999999E+02
 -0.29999999E+02
 -0.29999998E+02
 -0.29999999E+02
 -0.30000001E+02
 -0.30000000E+02
 -0.30000001E+02
 -0.29999999E+02
 -0.30000000E+02
 -0.30000000E+02
 -0.30000000E+02
 -0.30000002E+02
 -0.30000000E+02
 -0.30000000E+02
 -0.29999999E+02
 -0.29999998E+02
 -0.29999999E+02
 -0.29999998E+02
 -0.29999999E+02
 -0.30000001E+02
 -0.29999999E+02
 -0.29999999E+02
 -0.29999998E+02
POINT_DATA      121
VECTORS Deslocamentos float
  0.00000000E+00  0.00000000E+00  0.00000000E+00
  0.00000000E+00  0.39000001E-07  0.00000000E+00
  0.00000000E+00  0.78000001E-07  0.00000000E+00
  0.00000000E+00  0.11700000E-06  0.00000000E+00
  0.00000000E+00  0.15600000E-06  0.00000000E+00
  0.00000000E+00  0.19500000E-06  0.00000000E+00
  0.00000000E+00  0.23400000E-06  0.00000000E+00
  0.00000000E+00  0.27300000E-06  0.00000000E+00
  0.00000000E+00  0.31200001E-06  0.00000000E+00
  0.00000000E+00  0.35100001E-06  0.00000000E+00
  0.00000000E+00  0.39000001E-06  0.00000000E+00
 -0.90999998E-07  0.00000000E+00  0.00000000E+00
 -0.91000000E-07  0.39000000E-07  0.00000000E+00
 -0.91000000E-07  0.78000000E-07  0.00000000E+00
 -0.91000001E-07  0.11700000E-06  0.00000000E+00
 -0.91000000E-07  0.15600000E-06  0.00000000E+00
 -0.91000001E-07  0.19500000E-06  0.00000000E+00
 -0.91000001E-07  0.23400000E-06  0.00000000E+00
 -0.91000003E-07  0.27300000E-06  0.00000000E+00
 -0.91000003E-07  0.31200000E-06  0.00000000E+00
 -0.91000001E-07  0.35100000E-06  0.00000000E+00
 -0.90999998E-07  0.39000001E-06  0.00000000E+00
 -0.18200000E-06  0.00000000E+00  0.00000000E+00
 -0.18200000E-06  0.39000001E-07  0.00000000E+00
 -0.18200000E-06  0.78000000E-07  0.00000000E+00
 -0.18200000E-06  0.11700000E-06  0.00000000E+00
 -0.18200000E-06  0.15600000E-06  0.00000000E+00
 -0.18200000E-06  0.19500000E-06  0.00000000E+00
 -0.18200000E-06  0.23400000E-06  0.00000000E+00
 -0.18200001E-06  0.27300000E-06  0.00000000E+00