# vtk DataFile Version 2.0
MEF - Elasticidade Plana 2D
ASCII
DATASET UNSTRUCTURED_GRID
POINTS      121 float
  0.00000000E+00  0.00000000E+00  0.00000000E+00
  0.00000000E+00  0.20000000E+00  0.00000000E+00
  0.00000000E+00  0.40000000E+00  0.00000000E+00
  0.00000000E+00  0.60000000E+00  0.00000000E+00
  0.00000000E+00  0.80000000E+00  0.00000000E+00
  0.00000000E+00  0.10000000E+01  0.00000000E+00
  0.00000000E+00  0.12000000E+01  0.00000000E+00
  0.00000000E+00  0.14000000E+01  0.00000000E+00
  0.00000000E+00  0.16000000E+01  0.00000000E+00
  0.00000000E+00  0.18000000E+01  0.00000000E+00
  0.00000000E+00  0.20000000E+01  0.00000000E+00
  0.20000000E+00  0.00000000E+00  0.00000000E+00
  0.20000000E+00  0.20000000E+00  0.00000000E+00
  0.20000000E+00  0.40000000E+00  0.00000000E+00
  0.20000000E+00  0.60000000E+00  0.00000000E+00
  0.20000000E+00  0.80000000E+00  0.00000000E+00
  0.20000000E+00  0.10000000E+01  0.00000000E+00
  0.20000000E+00  0.12000000E+01  0.00000000E+00
  0.20000000E+00  0.14000000E+01  0.00000000E+00
  0.20000000E+00  0.16000000E+01  0.00000000E+00
  0.20000000E+00  0.18000000E+01  0.00000000E+00
  0.20000000E+00  0.20000000E+01  0.00000000E+00
  0.40000000E+00  0.00000000E+00  0.00000000E+00
  0.40000000E+00  0.20000000E+00  0.00000000E+00
  0.40000000E+00  0.40000000E+00  0.00000000E+00
  0.40000000E+00  0.60000000E+00  0.00000000E+00
  0.40000000E+00  0.80000000E+00  0.00000000E+00
  0.40000000E+00  0.10000000E+01  0.00000000E+00
  0.40000000E+00  0.12000000E+01  0.00000000E+00
  0.40000000E+00  0.14000000E+01  0.00000000E+00
  0.40000000E+00  0.16000000E+01  0.00000000E+00
  0.40000000E+00  0.18000000E+01  0.00000000E+00
  0.40000000E+00  0.20000000E+01  0.00000000E+00
  0.60000000E+00  0.00000000E+00  0.00000000E+00
  0.60000000E+00  0.20000000E+00  0.00000000E+00
  0.60000000E+00  0.40000000E+00  0.00000000E+00
  0.60000000E+00  0.60000000E+00  0.00000000E+00
  0.60000000E+00  0.80000000E+00  0.00000000E+00
  0.60000000E+00  0.10000000E+01  0.00000000E+00
  0.60000000E+00  0.12000000E+01  0.00000000E+00
  0.60000000E+00  0.14000000E+01  0.00000000E+00
  0.60000000E+00  0.16000000E+01  0.00000000E+00
  0.60000000E+00  0.18000000E+01  0.00000000E+00
  0.60000000E+00  0.20000000E+01  0.00000000E+00
  0.80000000E+00  0.00000000E+00  0.00000000E+00
  0.80000000E+00  0.20000000E+00  0.00000000E+00
  0.80000000E+00  0.40000000E+00  0.00000000E+00
  0.80000000E+00  0.60000000E+00  0.00000000E+00
  0.80000000E+00  0.80000000E+00  0.00000000E+00
  0.80000000E+00  0.10000000E+01  0.00000000E+00
  0.80000000E+00  0.12000000E+01  0.00000000E+00
  0.80000000E+00  0.14000000E+01  0.00000000E+00
  0.80000000E+00  0.16000000E+01  0.00000000E+00
  0.80000000E+00  0.18000000E+01  0.00000000E+00
  0.80000000E+00  0.20000000E+01  0.00000000E+00
  0.10000000E+01  0.00000000E+00  0.00000000E+00
  0.10000000E+01  0.20000000E+00  0.00000000E+00
  0.10000000E+01  0.40000000E+00  0.00000000E+00
  0.10000000E+01  0.60000000E+00  0.00000000E+00
  0.10000000E+01  0.80000000E+00  0.00000000E+00
  0.10000000E+01  0.10000000E+01  0.00000000E+00
  0.10000000E+01  0.12000000E+01  0.00000000E+00
  0.10000000E+01  0.14000000E+01  0.00000000E+00
  0.10000000E+01  0.16000000E+01  0.00000000E+00
  0.10000000E+01  0.18000000E+01  0.00000000E+00
  0.10000000E+01  0.20000000E+01  0.00000000E+00
  0.12000000E+01  0.00000000E+00  0.00000000E+00
  0.12000000E+01  0.20000000E+00  0.00000000E+00
  0.12000000E+01  0.40000000E+00  0.00000000E+00
  0.12000000E+01  0.60000000E+00  0.00000000E+00
  0.12000000E+01  0.80000000E+00  0.00000000E+00
  0.12000000E+01  0.10000000E+01  0.00000000E+00
  0.12000000E+01  0.12000000E+01  0.00000000E+00
  0.12000000E+01  0.14000000E+01  0.00000000E+00
  0.12000000E+01  0.16000000E+01  0.00000000E+00
  0.12000000E+01  0.18000000E+01  0.00000000E+00
  0.12000000E+01  0.20000000E+01  0.00000000E+00
  0.14000000E+01  0.00000000E+00  0.00000000E+00
  0.14000000E+01  0.20000000E+00  0.00000000E+00
  0.14000000E+01  0.40000000E+00  0.00000000E+00
  0.14000000E+01  0.60000000E+00  0.00000000E+00
  0.14000000E+01  0.80000000E+00  0.00000000E+00
  0.14000000E+01  0.10000000E+01  0.00000000E+00
  0.14000000E+01  0.12000000E+01  0.00000000E+00
  0.14000000E+01  0.14000000E+01  0.00000000E+00
  0.14000000E+01  0.16000000E+01  0.00000000E+00
  0.14000000E+01  0.18000000E+01  0.00000000E+00
  0.14000000E+01  0.20000000E+01  0.00000000E+00
  0.16000000E+01  0.00000000E+00  0.00000000E+00
  0.16000000E+01  0.20000000E+00  0.00000000E+00
  0.16000000E+01  0.40000000E+00  0.00000000E+00
  0.16000000E+01  0.60000000E+00  0.00000000E+00
  0.16000000E+01  0.80000000E+00  0.00000000E+00
  0.16000000E+01  0.10000000E+01  0.00000000E+00
  0.16000000E+01  0.12000000E+01  0.00000000E+00
  0.16000000E+01  0.14000000E+01  0.00000000E+00
  0.16000000E+01  0.16000000E+01  0.00000000E+00
  0.16000000E+01  0.18000000E+01  0.00000000E+00
  0.16000000E+01  0.20000000E+01  0.00000000E+00
  0.18000000E+01  0.00000000E+00  0.00000000E+00
  0.18000000E+01  0.20000000E+00  0.00000000E+00
  0.18000000E+01  0.40000000E+00  0.00000000E+00
  0.18000000E+01  0.60000000E+00  0.00000000E+00
  0.18000000E+01  0.80000000E+00  0.00000000E+00
  0.18000000E+01  0.10000000E+01  0.00000000E+00
  0.18000000E+01  0.12000000E+01  0.00000000E+00
  0.18000000E+01  0.14000000E+01  0.00000000E+00
  0.18000000E+01  0.16000000E+01  0.00000000E+00
  0.18000000E+01  0.18000000E+01  0.00000000E+00
  0.18000000E+01  0.20000000E+01  0.00000000E+00
  0.20000000E+01  0.00000000E+00  0.00000000E+00
  0.20000000E+01  0.20000000E+00  0.00000000E+00
  0.20000000E+01  0.40000000E+00  0.00000000E+00
  0.20000000E+01  0.60000000E+00  0.00000000E+00
  0.20000000E+01  0.80000000E+00  0.00000000E+00
  0.20000000E+01  0.10000000E+01  0.00000000E+00
  0.20000000E+01  0.12000000E+01  0.00000000E+00
  0.20000000E+01  0.14000000E+01  0.00000000E+00
  0.20000000E+01  0.16000000E+01  0.00000000E+00
  0.20000000E+01  0.18000000E+01  0.00000000E+00
  0.20000000E+01  0.20000000E+01  0.00000000E+00
CELLS      200     800
       3       0      11      12
       3       0      12       1
       3       1      12      13
       3       1      13       2
       3       2      13      14
       3       2      14       3
       3       3      14      15
       3       3      15       4
       3       4      15      16
       3       4      16       5
       3       5      16      17
       3       5      17       6
       3       6      17      18
       3       6      18       7
       3       7      18      19
       3       7      19       8
       3       8      19      20
       3       8      20       9
       3       9      20      21
       3       9      21      10
       3      11      22      23
       3      11      23      12
       3      12      23      24
       3      12      24      13
       3      13      24      25
       3      13      25      14
       3      14      25      26
       3      14      26      15
       3      15      26      27
       3      15      27      16
       3      16      27      28
       3      16      28      17
       3      17      28      29
       3      17      29      18
       3      18      29      30
       3      18      30      19
       3      19      30      31
       3      19      31      20
       3      20      31      32
       3      20      32      21
       3      22      33      34
       3      22      34      23
       3      23      34      35
       3      23      35      24
       3      24      35      36
       3      24      36      25
       3      25      36      37
       3      25      37      26
       3      26      37      38
       3      26      38      27
       3      27      38      39
       3      27      39      28
       3      28      39      40
       3      28      40      29
       3      29      40      41
       3      29      41      30
       3      30      41      42
       3      30      42      31
       3      31      42      43
       3      31      43      32
       3      33      44      45
       3      33      45      34
       3      34      45      46
       3      34      46      35
       3      35      46      47
       3      35      47      36
       3      36      47      48
       3      36      48      37
       3      37      48      49
       3      37      49      38
       3      38      49      50
       3      38      50      39
       3      39      50      51
       3      39      51      40
       3      40      51      52
       3      40      52      41
       3      41      52      53
       3      41      53      42
       3      42      53      54
       3      42      54      43
       3      44      55      56
       3      44      56      45
       3      45      56      57
       3      45      57      46
       3      46      57      58
       3      46      58      47
       3      47      58      59
       3      47      59      48
       3      48      59      60
       3      48      60      49
       3      49      60      61
       3      49      61      50
       3      50      61      62
       3      50      62      51
       3      51      62      63
       3      51      63      52
       3      52      63      64
       3      52      64      53
       3      53      64      65
       3      53      65      54
       3      55      66      67
       3      55      67      56
       3      56      67      68
       3      56      68      57
       3      57      68      69
       3      57      69      58
       3      58      69      70
       3      58      70      59
       3      59      70      71
       3      59      71      60
       3      60      71      72
       3      60      72      61
       3      61      72      73
       3      61      73      62
       3      62      73      74
       3      62      74      63
       3      63      74      75
       3      63      75      64
       3      64      75      76
       3      64      76      65
       3      66      77      78
       3      66      78      67
       3      67      78      79
       3      67      79      68
       3      68      79      80
       3      68      80      69
       3      69      80      81
       3      69      81      70
       3      70      81      82
       3      70      82      71
       3      71      82      83
       3      71      83      72
       3      72      83      84
       3      72      84      73
       3      73      84      85
       3      73      85      74
       3      74      85      86
       3      74      86      75
       3      75      86      87
       3      75      87      76
       3      77      88      89
       3      77      89      78
       3      78      89      90
       3      78      90      79
       3      79      90      91
       3      79      91      80
       3      80      91      92
       3      80      92      81
       3      81      92      93
       3      81      93      82
       3      82      93      94
       3      82      94      83
       3      83      94      95
       3      83      95      84
       3      84      95      96
       3      84      96      85
       3      85      96      97
       3      85      97      86
       3      86      97      98
       3      86      98      87
       3      88      99     100
       3      88     100      89
       3      89     100     101
       3      89     101      90
       3      90     101     102
       3      90     102      91
       3      91     102     103
       3      91     103      92
       3      92     103     104
       3      92     104      93
       3      93     104     105
       3      93     105      94
       3      94     105     106
       3      94     106      95
       3      95     106     107
       3      95     107      96
       3      96     107     108
       3      96     108      97
       3      97     108     109
       3      97     109      98
       3      99     110     111
       3      99     111     100
       3     100     111     112
       3     100     112     101
       3     101     112     113
       3     101     113     102
       3     102     113     114
       3     102     114     103
       3     103     114     115
       3     103     115     104
       3     104     115     116
       3     104     116     105
       3     105     116     117
       3     105     117     106
       3     106     117     118
       3     106     118     107
       3     107     118     119
       3     107     119     108
       3     108     119     120
       3     108     120     109
CELL_TYPES      200
 5
 5
 5
 5
 5
 5
 5
 5
 5
 5
 5
 5
 5
 5
 5
 5
 5
 5
 5
 5
 5
 5
 5
 5
 5
 5
 5
 5
 5
 5
 5
 5
 5
 5
 5
 5
 5
 5
 5
 5
 5
 5
 5
 5
 5
 5
 5
 5
 5
 5
 5
 5
 5
 5
 5
 5
 5
 5
 5
 5
 5
 5
 5
 5
 5
 5
 5
 5
 5
 5
 5
 5
 5
 5
 5
 5
 5
 5
 5
 5
 5
 5
 5
 5
 5
 5
 5
 5
 5
 5
 5
 5
 5
 5
 5
 5
 5
 5
 5
 5
 5
 5
 5
 5
 5
 5
 5
 5
 5
 5
 5
 5
 5
 5
 5
 5
 5
 5
 5
 5
 5
 5
 5
 5
 5
 5
 5
 5
 5
 5
 5
 5
 5
 5
 5
 5
 5
 5
 5
 5
 5
 5
 5
 5
 5
 5
 5
 5
 5
 5
 5
 5
 5
 5
 5
 5
 5
 5
 5
 5
 5
 5
 5
 5
 5
 5
 5
 5
 5
 5
 5
 5
 5
 5
 5
 5
 5
 5
 5
 5
 5
 5
 5
 5
 5
 5
 5
 5
 5
 5
 5
 5
 5
 5
 5
 5
 5
 5
 5
 5
CELL_DATA      200
SCALARS sigma_x float 1
LOOKUP_TABLE default
 -0.32685156E+03
 -0.22023122E+03
 -0.21297209E+03
 -0.17008466E+03
 -0.16710224E+03
 -0.14051453E+03
 -0.13927652E+03
 -0.11874356E+03
 -0.11843295E+03
 -0.99846459E+02
 -0.10028573E+03
 -0.80738940E+02
 -0.82182858E+02
 -0.58244633E+02
 -0.61538303E+02
 -0.27303917E+02
 -0.34438640E+02
  0.23257791E+02
  0.82325258E+01
  0.12729851E+03
 -0.23905401E+03
 -0.20076143E+03
 -0.20924252E+03
 -0.16756703E+03
 -0.16807832E+03
 -0.14019706E+03
 -0.13994422E+03
 -0.11850132E+03
 -0.11881908E+03
 -0.99294455E+02
 -0.10064575E+03
 -0.79930443E+02
 -0.82741794E+02
 -0.57836593E+02
 -0.62680761E+02
 -0.30004552E+02
 -0.37438438E+02
  0.67391254E+01
 -0.26324344E+01
  0.48631080E+02
 -0.19497234E+03
 -0.17789299E+03
 -0.18385584E+03
 -0.15765776E+03
 -0.16157600E+03
 -0.13659736E+03
 -0.13855131E+03
 -0.11715962E+03
 -0.11887022E+03
 -0.99025858E+02
 -0.10134302E+03
 -0.80844873E+02
 -0.84222908E+02
 -0.61218871E+02
 -0.65851008E+02
 -0.39209993E+02
 -0.44783372E+02
 -0.15831550E+02
 -0.20748854E+02
  0.21375830E+00
 -0.16517832E+03
 -0.15777320E+03
 -0.16195957E+03
 -0.14562079E+03
 -0.14977609E+03
 -0.13050509E+03
 -0.13383576E+03
 -0.11467248E+03
 -0.11755271E+03
 -0.98919729E+02
 -0.10194802E+03
 -0.83110250E+02
 -0.86619284E+02
 -0.66961752E+02
 -0.70927777E+02
 -0.50857986E+02
 -0.54719034E+02
 -0.37123154E+02
 -0.39478477E+02
 -0.32460536E+02
 -0.14275392E+03
 -0.14092021E+03
 -0.14406283E+03
 -0.13404890E+03
 -0.13784284E+03
 -0.12362779E+03
 -0.12733062E+03
 -0.11153683E+03
 -0.11500276E+03
 -0.98843371E+02
 -0.10222934E+03
 -0.86049816E+02
 -0.89478130E+02
 -0.73599522E+02
 -0.76935049E+02
 -0.62536182E+02
 -0.65234691E+02
 -0.55295005E+02
 -0.56321840E+02
 -0.56350372E+02
 -0.12541095E+03
 -0.12718871E+03
 -0.12965989E+03
 -0.12385320E+03
 -0.12722516E+03
 -0.11701481E+03
 -0.12064688E+03
 -0.10830158E+03
 -0.11188169E+03
 -0.98770913E+02
 -0.10220876E+03
 -0.89137526E+02
 -0.92381303E+02
 -0.80147995E+02
 -0.83008779E+02
 -0.73057959E+02
 -0.75082755E+02
 -0.70083647E+02
 -0.70522917E+02
 -0.74414575E+02
 -0.11244672E+03
 -0.11641226E+03
 -0.11839816E+03
 -0.11531997E+03
 -0.11828740E+03
 -0.11113733E+03
 -0.11451372E+03
 -0.10529362E+03
 -0.10873368E+03
 -0.98710029E+02
 -0.10202264E+03
 -0.92059327E+02
 -0.95097990E+02
 -0.86078421E+02
 -0.88633251E+02
 -0.81942345E+02
 -0.83653015E+02
 -0.81601579E+02
 -0.81907750E+02
 -0.87750772E+02
 -0.10380761E+03
 -0.10848748E+03
 -0.11003208E+03
 -0.10852545E+03
 -0.11103588E+03
 -0.10618894E+03
 -0.10918324E+03
 -0.10265691E+03
 -0.10583987E+03
 -0.98631423E+02
 -0.10179293E+03
 -0.94608234E+02
 -0.97543980E+02
 -0.91126343E+02
 -0.93589234E+02
 -0.89065782E+02
 -0.90745487E+02
 -0.90027256E+02
 -0.90506405E+02
 -0.96605460E+02
 -0.99612580E+02
 -0.10338640E+03
 -0.10429633E+03
 -0.10358214E+03
 -0.10536425E+03
 -0.10234673E+03
 -0.10474968E+03
 -0.10048427E+03
 -0.10336034E+03
 -0.98442497E+02
 -0.10160489E+03
 -0.96518088E+02
 -0.99682558E+02
 -0.95008123E+02
 -0.97792827E+02
 -0.94381255E+02
 -0.96371064E+02
 -0.95601605E+02
 -0.96468963E+02
 -0.10094541E+03
 -0.99523837E+02
 -0.10125798E+03
 -0.10079967E+03
 -0.10096914E+03
 -0.10126894E+03
 -0.10007320E+03
 -0.10144621E+03
 -0.98989789E+02
 -0.10154646E+03
 -0.97991540E+02
 -0.10156367E+03
 -0.97276693E+02
 -0.10141989E+03
 -0.97021732E+02
 -0.10104705E+03
 -0.97406940E+02
 -0.10047439E+03
 -0.98630714E+02
 -0.10004992E+03
 -0.10124224E+03
SCALARS sigma_y float 1
LOOKUP_TABLE default
 -0.33620269E+02
 -0.66069367E+02
 -0.41872260E+02
 -0.51025398E+02
 -0.41083984E+02
 -0.42154360E+02
 -0.38027653E+02
 -0.35623068E+02
 -0.34587717E+02
 -0.29953938E+02
 -0.31418188E+02
 -0.24221682E+02
 -0.29034744E+02
 -0.17473390E+02
 -0.28452290E+02
 -0.81911752E+01
 -0.31973583E+02
  0.69773373E+01
 -0.43106880E+02
  0.38189554E+02
 -0.12873402E+02
  0.42067704E+01
 -0.24063519E+02
 -0.28250741E+02
 -0.29955071E+02
 -0.33012430E+02
 -0.32169634E+02
 -0.31795092E+02
 -0.32854299E+02
 -0.28846167E+02
 -0.33350485E+02
 -0.25311600E+02
 -0.34682771E+02
 -0.21730864E+02
 -0.37878091E+02
 -0.18992165E+02
 -0.43771785E+02
 -0.19620253E+02
 -0.50858786E+02
 -0.30987314E+02
 -0.71754398E+01
  0.54749011E+01
 -0.14401270E+02
 -0.85880909E+01
 -0.21648909E+02
 -0.20510782E+02
 -0.27023933E+02
 -0.25334255E+02
 -0.31036272E+02
 -0.26916332E+02
 -0.34640218E+02
 -0.27410222E+02
 -0.38670337E+02
 -0.28225894E+02
 -0.43666349E+02
 -0.30836861E+02
 -0.49414790E+02
 -0.37289719E+02
 -0.53680729E+02
 -0.50004928E+02
 -0.46047381E+01
  0.39843036E+01
 -0.99702887E+01
 -0.29307541E+01
 -0.16781736E+02
 -0.12327637E+02
 -0.23429851E+02
 -0.19860284E+02
 -0.29461059E+02
 -0.25051123E+02
 -0.35145435E+02
 -0.29170386E+02
 -0.40867166E+02
 -0.33491990E+02
 -0.46712074E+02
 -0.39168443E+02
 -0.52038601E+02
 -0.47116724E+02
 -0.54967800E+02
 -0.57194234E+02
 -0.31438876E+01
  0.26726963E+01
 -0.78027175E+01
 -0.15970854E+01
 -0.14243560E+02
 -0.89372481E+01
 -0.21280004E+02
 -0.16740172E+02
 -0.28293273E+02
 -0.23848257E+02
 -0.35134805E+02
 -0.30375973E+02
 -0.41803684E+02
 -0.36961237E+02
 -0.48079661E+02
 -0.44194596E+02
 -0.53189627E+02
 -0.52211392E+02
 -0.55634176E+02
 -0.60029369E+02
 -0.22151335E+01
  0.15256746E+01
 -0.67115697E+01
 -0.17398279E+01
 -0.12979705E+02
 -0.79951521E+01
 -0.20102039E+02
 -0.15571292E+02
 -0.27504995E+02
 -0.23423718E+02
 -0.34883210E+02
 -0.31207262E+02
 -0.42019851E+02
 -0.39004643E+02
 -0.48540588E+02
 -0.46916534E+02
 -0.53665854E+02
 -0.54644314E+02
 -0.56108548E+02
 -0.61061997E+02
 -0.16188641E+01
  0.48447282E+00
 -0.61351920E+01
 -0.24095962E+01
 -0.12301011E+02
 -0.81533537E+01
 -0.19407999E+02
 -0.15496061E+02
 -0.26962932E+02
 -0.23553497E+02
 -0.34595546E+02
 -0.31838380E+02
 -0.41967255E+02
 -0.40128987E+02
 -0.48645087E+02
 -0.48220658E+02
 -0.53922890E+02
 -0.55621501E+02
 -0.56642070E+02
 -0.61276905E+02
 -0.12263020E+01
 -0.43109052E+00
 -0.55797717E+01
 -0.31733777E+01
 -0.11541468E+02
 -0.86714748E+01
 -0.18652447E+02
 -0.15850957E+02
 -0.26460827E+02
 -0.23932254E+02
 -0.34470601E+02
 -0.32371223E+02
 -0.42157041E+02
 -0.40775761E+02
 -0.48985398E+02
 -0.48774846E+02
 -0.54373860E+02
 -0.55835163E+02
 -0.57432325E+02
 -0.61051383E+02
 -0.73690481E+00
 -0.10999386E+01
 -0.41330511E+01
 -0.36447886E+01
 -0.95851626E+01
 -0.89347241E+01
 -0.16944540E+02
 -0.16042756E+02
 -0.25629672E+02
 -0.24241613E+02
 -0.34782929E+02
 -0.32888149E+02
 -0.43436383E+02
 -0.41396284E+02
 -0.50678633E+02
 -0.49223004E+02
 -0.55855702E+02
 -0.55830696E+02
 -0.58721889E+02
 -0.60564027E+02
  0.47616579E+00
 -0.12305264E+01
  0.29720059E+00
 -0.31348940E+01
 -0.41342336E+01
 -0.79978472E+01
 -0.12574541E+02
 -0.15216574E+02
 -0.23738798E+02
 -0.24019031E+02
 -0.35926119E+02
 -0.33484470E+02
 -0.47295124E+02
 -0.42638135E+02
 -0.56055861E+02
 -0.50562867E+02
 -0.60787695E+02
 -0.56533596E+02
 -0.61264290E+02
 -0.60153871E+02
SCALARS tau_xy float 1
LOOKUP_TABLE default
 -0.51151517E+02
 -0.71120697E+02
 -0.53569401E+02
 -0.62651710E+02
 -0.52302166E+02
 -0.59172215E+02
 -0.51552374E+02
 -0.57727867E+02
 -0.51113882E+02
 -0.57365494E+02
 -0.50677862E+02
 -0.57877982E+02
 -0.50004975E+02
 -0.59562554E+02
 -0.48733303E+02
 -0.63405168E+02
 -0.45708571E+02
 -0.71729011E+02
 -0.35314759E+02
 -0.89258487E+02
 -0.21738008E+02
 -0.36646055E+02
 -0.47334531E+02
 -0.57427527E+02
 -0.53552943E+02
 -0.60236303E+02
 -0.54761954E+02
 -0.60635880E+02
 -0.54594740E+02
 -0.60930484E+02
 -0.53816975E+02
 -0.61558488E+02
 -0.52288640E+02
 -0.62480938E+02
 -0.49136067E+02
 -0.63018181E+02
 -0.41946178E+02
 -0.60342473E+02
 -0.24200944E+02
 -0.43352671E+02
 -0.14339514E+02
 -0.22343661E+02
 -0.36383825E+02
 -0.45002244E+02
 -0.48163989E+02
 -0.55195426E+02
 -0.52764805E+02
 -0.58979019E+02
 -0.53984859E+02
 -0.60436788E+02
 -0.53320601E+02
 -0.60785871E+02
 -0.50913307E+02
 -0.59918667E+02
 -0.45892051E+02
 -0.56518725E+02
 -0.36099080E+02
 -0.47158243E+02
 -0.17582958E+02
 -0.24216377E+02
 -0.11148377E+02
 -0.15454499E+02
 -0.29132095E+02
 -0.35426258E+02
 -0.41095454E+02
 -0.47482978E+02
 -0.47569584E+02
 -0.53689966E+02
 -0.50070724E+02
 -0.56274586E+02
 -0.49759602E+02
 -0.56439977E+02
 -0.46907479E+02
 -0.54185516E+02
 -0.40952746E+02
 -0.48387129E+02
 -0.30533966E+02
 -0.36596439E+02
 -0.13801319E+02
 -0.15091340E+02
 -0.92163343E+01
 -0.11276029E+02
 -0.23675228E+02
 -0.28042035E+02
 -0.34328066E+02
 -0.39583816E+02
 -0.41017700E+02
 -0.46492136E+02
 -0.44129250E+02
 -0.49676590E+02
 -0.44145502E+02
 -0.49782750E+02
 -0.41257708E+02
 -0.46836454E+02
 -0.35223542E+02
 -0.40146140E+02
 -0.25431624E+02
 -0.28371065E+02
 -0.11279518E+02
 -0.10088515E+02
 -0.75981235E+01
 -0.81266363E+01
 -0.18900286E+02
 -0.21802170E+02
 -0.27871764E+02
 -0.31962699E+02
 -0.34026228E+02
 -0.38569779E+02
 -0.37185910E+02
 -0.41814540E+02
 -0.37382466E+02
 -0.41891322E+02
 -0.34682867E+02
 -0.38788236E+02
 -0.29083890E+02
 -0.32200203E+02
 -0.20539803E+02
 -0.21622285E+02
 -0.91660619E+01
 -0.67846869E+01
 -0.58674646E+01
 -0.53661016E+01
 -0.14270323E+02
 -0.16102112E+02
 -0.21559931E+02
 -0.24601627E+02
 -0.26922259E+02
 -0.30457807E+02
 -0.29837497E+02
 -0.33454098E+02
 -0.30079803E+02
 -0.33504548E+02
 -0.27642385E+02
 -0.30565649E+02
 -0.22694061E+02
 -0.24609727E+02
 -0.15604168E+02
 -0.15699159E+02
 -0.69910972E+01
 -0.41701357E+01
 -0.38175157E+01
 -0.27716471E+01
 -0.96061546E+01
 -0.10659662E+02
 -0.15338472E+02
 -0.17416106E+02
 -0.19821313E+02
 -0.22332648E+02
 -0.22326430E+02
 -0.24947936E+02
 -0.22514389E+02
 -0.25013946E+02
 -0.20356750E+02
 -0.22456459E+02
 -0.16126333E+02
 -0.17400872E+02
 -0.10474911E+02
 -0.10274853E+02
 -0.44800047E+01
 -0.18635894E+01
 -0.14912831E+01
 -0.37751493E+00
 -0.51019661E+01
 -0.54257048E+01
 -0.93207951E+01
 -0.10308322E+02
 -0.12710091E+02
 -0.14101258E+02
 -0.14550597E+02
 -0.16248340E+02
 -0.14557682E+02
 -0.16437339E+02
 -0.12738786E+02
 -0.14546545E+02
 -0.93811767E+01
 -0.10691577E+02
 -0.51880495E+01
 -0.54019441E+01
 -0.15611077E+01
  0.14005076E+00
  0.47615945E+00
  0.14025395E+01
 -0.15815032E+01
 -0.61184969E+00
 -0.38195887E+01
 -0.31013166E+01
 -0.53389932E+01
 -0.52890201E+01
 -0.58752388E+01
 -0.67568841E+01
 -0.54304365E+01
 -0.72419887E+01
 -0.41270167E+01
 -0.65649408E+01
 -0.21958007E+01
 -0.46547132E+01
 -0.77123444E-01
 -0.17188316E+01
  0.12422359E+01
  0.12642851E+01
SCALARS sigma_z float 1
LOOKUP_TABLE default
  0.00000000E+00
  0.00000000E+00
  0.00000000E+00
  0.00000000E+00
  0.00000000E+00
  0.00000000E+00
  0.00000000E+00
  0.00000000E+00
  0.00000000E+00
  0.00000000E+00
  0.00000000E+00
  0.00000000E+00
  0.00000000E+00
  0.00000000E+00
  0.00000000E+00
  0.00000000E+00
  0.00000000E+00
  0.00000000E+00
  0.00000000E+00
  0.00000000E+00
  0.00000000E+00
  0.00000000E+00
  0.00000000E+00
  0.00000000E+00
  0.00000000E+00
  0.00000000E+00
  0.00000000E+00
  0.00000000E+00
  0.00000000E+00
  0.00000000E+00
  0.00000000E+00
  0.00000000E+00
  0.00000000E+00
  0.00000000E+00
  0.00000000E+00
  0.00000000E+00
  0.00000000E+00
  0.00000000E+00
  0.00000000E+00
  0.00000000E+00
  0.00000000E+00
  0.00000000E+00
  0.00000000E+00
  0.00000000E+00
  0.00000000E+00
  0.00000000E+00
  0.00000000E+00
  0.00000000E+00
  0.00000000E+00
  0.00000000E+00
  0.00000000E+00
  0.00000000E+00
  0.00000000E+00
  0.00000000E+00
  0.00000000E+00
  0.00000000E+00
  0.00000000E+00
  0.00000000E+00
  0.00000000E+00
  0.00000000E+00
  0.00000000E+00
  0.00000000E+00
  0.00000000E+00
  0.00000000E+00
  0.00000000E+00
  0.00000000E+00
  0.00000000E+00
  0.00000000E+00
  0.00000000E+00
  0.00000000E+00
  0.00000000E+00
  0.00000000E+00
  0.00000000E+00
  0.00000000E+00
  0.00000000E+00
  0.00000000E+00
  0.00000000E+00
  0.00000000E+00
  0.00000000E+00
  0.00000000E+00
  0.00000000E+00
  0.00000000E+00
  0.00000000E+00
  0.00000000E+00
  0.00000000E+00
  0.00000000E+00
  0.00000000E+00
  0.00000000E+00
  0.00000000E+00
  0.00000000E+00
  0.00000000E+00
  0.00000000E+00
  0.00000000E+00
  0.00000000E+00
  0.00000000E+00
  0.00000000E+00
  0.00000000E+00
  0.00000000E+00
  0.00000000E+00
  0.00000000E+00
  0.00000000E+00
  0.00000000E+00
  0.00000000E+00
  0.00000000E+00
  0.00000000E+00
  0.00000000E+00
  0.00000000E+00
  0.00000000E+00
  0.00000000E+00
  0.00000000E+00
  0.00000000E+00
  0.00000000E+00
  0.00000000E+00
  0.00000000E+00
  0.00000000E+00
  0.00000000E+00
  0.00000000E+00
  0.00000000E+00
  0.00000000E+00
  0.00000000E+00
  0.00000000E+00
  0.00000000E+00
  0.00000000E+00
  0.00000000E+00
  0.00000000E+00
  0.00000000E+00
  0.00000000E+00
  0.00000000E+00
  0.00000000E+00
  0.00000000E+00
  0.00000000E+00
  0.00000000E+00
  0.00000000E+00
  0.00000000E+00
  0.00000000E+00
  0.00000000E+00
  0.00000000E+00
  0.00000000E+00
  0.00000000E+00
  0.00000000E+00
  0.00000000E+00
  0.00000000E+00
  0.00000000E+00
  0.00000000E+00
  0.00000000E+00
  0.00000000E+00
  0.00000000E+00
  0.00000000E+00
  0.00000000E+00
  0.00000000E+00
  0.00000000E+00
  0.00000000E+00
  0.00000000E+00
  0.00000000E+00
  0.00000000E+00
  0.00000000E+00
  0.00000000E+00
  0.00000000E+00
  0.00000000E+00
  0.00000000E+00
  0.00000000E+00
  0.00000000E+00
  0.00000000E+00
  0.00000000E+00
  0.00000000E+00
  0.00000000E+00
  0.00000000E+00
  0.00000000E+00
  0.00000000E+00
  0.00000000E+00
  0.00000000E+00
  0.00000000E+00
  0.00000000E+00
  0.00000000E+00
  0.00000000E+00
  0.00000000E+00
  0.00000000E+00
  0.00000000E+00
  0.00000000E+00
  0.00000000E+00
  0.00000000E+00
  0.00000000E+00
  0.00000000E+00
  0.00000000E+00
  0.00000000E+00
  0.00000000E+00
  0.00000000E+00
  0.00000000E+00
  0.00000000E+00
  0.00000000E+00
  0.00000000E+00
  0.00000000E+00
  0.00000000E+00
  0.00000000E+00
  0.00000000E+00
  0.00000000E+00
  0.00000000E+00
  0.00000000E+00
  0.00000000E+00
  0.00000000E+00
POINT_DATA      121
VECTORS Deslocamentos float
  0.00000000E+00  0.00000000E+00  0.00000000E+00
  0.00000000E+00  0.00000000E+00  0.00000000E+00
  0.00000000E+00  0.00000000E+00  0.00000000E+00
  0.00000000E+00  0.00000000E+00  0.00000000E+00
  0.00000000E+00  0.00000000E+00  0.00000000E+00
  0.00000000E+00  0.00000000E+00  0.00000000E+00
  0.00000000E+00  0.00000000E+00  0.00000000E+00
  0.00000000E+00  0.00000000E+00  0.00000000E+00
  0.00000000E+00  0.00000000E+00  0.00000000E+00
  0.00000000E+00  0.00000000E+00  0.00000000E+00
  0.00000000E+00  0.00000000E+00  0.00000000E+00
 -0.31676548E-06 -0.24934901E-06  0.00000000E+00
 -0.20041041E-06 -0.18491381E-06  0.00000000E+00
 -0.15477704E-06 -0.16289445E-06  0.00000000E+00
 -0.12786823E-06 -0.15384776E-06  0.00000000E+00
 -0.10805664E-06 -0.15009245E-06  0.00000000E+00
 -0.90860278E-07 -0.14915029E-06  0.00000000E+00
 -0.73472435E-07 -0.15048275E-06  0.00000000E+00
 -0.53002616E-07 -0.15486264E-06  0.00000000E+00
 -0.24846565E-07 -0.16485344E-06  0.00000000E+00
  0.21164590E-07 -0.18649543E-06  0.00000000E+00
  0.11584165E-06 -0.23207207E-06  0.00000000E+00
 -0.55195746E-06 -0.45539142E-06  0.00000000E+00
 -0.40243387E-06 -0.39654862E-06  0.00000000E+00
 -0.31386884E-06 -0.35783939E-06  0.00000000E+00
 -0.25816155E-06 -0.33737096E-06  0.00000000E+00
 -0.21701943E-06 -0.32755733E-06  0.00000000E+00
 -0.18150088E-06 -0.32476590E-06  0.00000000E+00
 -0.14580940E-06 -0.32792266E-06  0.00000000E+00
 -0.10431995E-06 -0.33778290E-06  0.00000000E+00