# vtk DataFile Version 2.0
MEF - Elasticidade Plana 2D
ASCII
DATASET UNSTRUCTURED_GRID
POINTS      561 float
  0.10000000E+01  0.00000000E+00  0.00000000E+00
  0.99879546E+00  0.49067674E-01  0.00000000E+00
  0.99518473E+00  0.98017140E-01  0.00000000E+00
  0.98917651E+00  0.14673047E+00  0.00000000E+00
  0.98078528E+00  0.19509032E+00  0.00000000E+00
  0.97003125E+00  0.24298018E+00  0.00000000E+00
  0.95694034E+00  0.29028468E+00  0.00000000E+00
  0.94154407E+00  0.33688985E+00  0.00000000E+00
  0.92387953E+00  0.38268343E+00  0.00000000E+00
  0.90398929E+00  0.42755509E+00  0.00000000E+00
  0.88192126E+00  0.47139674E+00  0.00000000E+00
  0.85772861E+00  0.51410274E+00  0.00000000E+00
  0.83146961E+00  0.55557023E+00  0.00000000E+00
  0.80320753E+00  0.59569930E+00  0.00000000E+00
  0.77301045E+00  0.63439328E+00  0.00000000E+00
  0.74095113E+00  0.67155895E+00  0.00000000E+00
  0.70710678E+00  0.70710678E+00  0.00000000E+00
  0.67155895E+00  0.74095113E+00  0.00000000E+00
  0.63439328E+00  0.77301045E+00  0.00000000E+00
  0.59569930E+00  0.80320753E+00  0.00000000E+00
  0.55557023E+00  0.83146961E+00  0.00000000E+00
  0.51410274E+00  0.85772861E+00  0.00000000E+00
  0.47139674E+00  0.88192126E+00  0.00000000E+00
  0.42755509E+00  0.90398929E+00  0.00000000E+00
  0.38268343E+00  0.92387953E+00  0.00000000E+00
  0.33688985E+00  0.94154407E+00  0.00000000E+00
  0.29028468E+00  0.95694034E+00  0.00000000E+00
  0.24298018E+00  0.97003125E+00  0.00000000E+00
  0.19509032E+00  0.98078528E+00  0.00000000E+00
  0.14673047E+00  0.98917651E+00  0.00000000E+00
  0.98017140E-01  0.99518473E+00  0.00000000E+00
  0.49067674E-01  0.99879546E+00  0.00000000E+00
  0.00000000E+00  0.10000000E+01  0.00000000E+00
  0.10625000E+01  0.00000000E+00  0.00000000E+00
  0.10612202E+01  0.52134404E-01  0.00000000E+00
  0.10573838E+01  0.10414321E+00  0.00000000E+00
  0.10510000E+01  0.15590113E+00  0.00000000E+00
  0.10420844E+01  0.20728347E+00  0.00000000E+00
  0.10306582E+01  0.25816644E+00  0.00000000E+00
  0.10167491E+01  0.30842747E+00  0.00000000E+00
  0.10003906E+01  0.35794547E+00  0.00000000E+00
  0.98162200E+00  0.40660115E+00  0.00000000E+00
  0.96048862E+00  0.45427729E+00  0.00000000E+00
  0.93704134E+00  0.50085903E+00  0.00000000E+00
  0.91133665E+00  0.54623417E+00  0.00000000E+00
  0.88343646E+00  0.59029337E+00  0.00000000E+00
  0.85340800E+00  0.63293051E+00  0.00000000E+00
  0.82132361E+00  0.67404286E+00  0.00000000E+00
  0.78726057E+00  0.71353139E+00  0.00000000E+00
  0.75130096E+00  0.75130096E+00  0.00000000E+00
  0.71353139E+00  0.78726057E+00  0.00000000E+00
  0.67404286E+00  0.82132361E+00  0.00000000E+00
  0.63293051E+00  0.85340800E+00  0.00000000E+00
  0.59029337E+00  0.88343646E+00  0.00000000E+00
  0.54623417E+00  0.91133665E+00  0.00000000E+00
  0.50085903E+00  0.93704134E+00  0.00000000E+00
  0.45427729E+00  0.96048862E+00  0.00000000E+00
  0.40660115E+00  0.98162200E+00  0.00000000E+00
  0.35794547E+00  0.10003906E+01  0.00000000E+00
  0.30842747E+00  0.10167491E+01  0.00000000E+00
  0.25816644E+00  0.10306582E+01  0.00000000E+00
  0.20728347E+00  0.10420844E+01  0.00000000E+00
  0.15590113E+00  0.10510000E+01  0.00000000E+00
  0.10414321E+00  0.10573838E+01  0.00000000E+00
  0.52134404E-01  0.10612202E+01  0.00000000E+00
  0.00000000E+00  0.10625000E+01  0.00000000E+00
  0.11250000E+01  0.00000000E+00  0.00000000E+00
  0.11236449E+01  0.55201134E-01  0.00000000E+00
  0.11195828E+01  0.11026928E+00  0.00000000E+00
  0.11128236E+01  0.16507178E+00  0.00000000E+00
  0.11033834E+01  0.21947661E+00  0.00000000E+00
  0.10912852E+01  0.27335270E+00  0.00000000E+00
  0.10765579E+01  0.32657026E+00  0.00000000E+00
  0.10592371E+01  0.37900109E+00  0.00000000E+00
  0.10393645E+01  0.43051886E+00  0.00000000E+00
  0.10169880E+01  0.48099948E+00  0.00000000E+00
  0.99216142E+00  0.53032133E+00  0.00000000E+00
  0.96494469E+00  0.57836559E+00  0.00000000E+00
  0.93540331E+00  0.62501651E+00  0.00000000E+00
  0.90360847E+00  0.67016172E+00  0.00000000E+00
  0.86963676E+00  0.71369244E+00  0.00000000E+00
  0.83357002E+00  0.75550382E+00  0.00000000E+00
  0.79549513E+00  0.79549513E+00  0.00000000E+00
  0.75550382E+00  0.83357002E+00  0.00000000E+00
  0.71369244E+00  0.86963676E+00  0.00000000E+00
  0.67016172E+00  0.90360847E+00  0.00000000E+00
  0.62501651E+00  0.93540331E+00  0.00000000E+00
  0.57836559E+00  0.96494469E+00  0.00000000E+00
  0.53032133E+00  0.99216142E+00  0.00000000E+00
  0.48099948E+00  0.10169880E+01  0.00000000E+00
  0.43051886E+00  0.10393645E+01  0.00000000E+00
  0.37900109E+00  0.10592371E+01  0.00000000E+00
  0.32657026E+00  0.10765579E+01  0.00000000E+00
  0.27335270E+00  0.10912852E+01  0.00000000E+00
  0.21947661E+00  0.11033834E+01  0.00000000E+00
  0.16507178E+00  0.11128236E+01  0.00000000E+00
  0.11026928E+00  0.11195828E+01  0.00000000E+00
  0.55201134E-01  0.11236449E+01  0.00000000E+00
  0.00000000E+00  0.11250000E+01  0.00000000E+00
  0.11875000E+01  0.00000000E+00  0.00000000E+00
  0.11860696E+01  0.58267863E-01  0.00000000E+00
  0.11817819E+01  0.11639535E+00  0.00000000E+00
  0.11746471E+01  0.17424244E+00  0.00000000E+00
  0.11646825E+01  0.23166976E+00  0.00000000E+00
  0.11519121E+01  0.28853896E+00  0.00000000E+00
  0.11363666E+01  0.34471305E+00  0.00000000E+00
  0.11180836E+01  0.40005670E+00  0.00000000E+00
  0.10971069E+01  0.45443658E+00  0.00000000E+00
  0.10734873E+01  0.50772167E+00  0.00000000E+00
  0.10472815E+01  0.55978363E+00  0.00000000E+00
  0.10185527E+01  0.61049701E+00  0.00000000E+00
  0.98737016E+00  0.65973965E+00  0.00000000E+00
  0.95380894E+00  0.70739292E+00  0.00000000E+00
  0.91794991E+00  0.75334202E+00  0.00000000E+00
  0.87987946E+00  0.79747626E+00  0.00000000E+00
  0.83968930E+00  0.83968930E+00  0.00000000E+00
  0.79747626E+00  0.87987946E+00  0.00000000E+00
  0.75334202E+00  0.91794991E+00  0.00000000E+00
  0.70739292E+00  0.95380894E+00  0.00000000E+00
  0.65973965E+00  0.98737016E+00  0.00000000E+00
  0.61049701E+00  0.10185527E+01  0.00000000E+00
  0.55978363E+00  0.10472815E+01  0.00000000E+00
  0.50772167E+00  0.10734873E+01  0.00000000E+00
  0.45443658E+00  0.10971069E+01  0.00000000E+00
  0.40005670E+00  0.11180836E+01  0.00000000E+00
  0.34471305E+00  0.11363666E+01  0.00000000E+00
  0.28853896E+00  0.11519121E+01  0.00000000E+00
  0.23166976E+00  0.11646825E+01  0.00000000E+00
  0.17424244E+00  0.11746471E+01  0.00000000E+00
  0.11639535E+00  0.11817819E+01  0.00000000E+00
  0.58267863E-01  0.11860696E+01  0.00000000E+00
  0.00000000E+00  0.11875000E+01  0.00000000E+00
  0.12500000E+01  0.00000000E+00  0.00000000E+00
  0.12484943E+01  0.61334593E-01  0.00000000E+00
  0.12439809E+01  0.12252143E+00  0.00000000E+00
  0.12364706E+01  0.18341309E+00  0.00000000E+00
  0.12259816E+01  0.24386290E+00  0.00000000E+00
  0.12125391E+01  0.30372522E+00  0.00000000E+00
  0.11961754E+01  0.36285585E+00  0.00000000E+00
  0.11769301E+01  0.42111232E+00  0.00000000E+00
  0.11548494E+01  0.47835429E+00  0.00000000E+00
  0.11299866E+01  0.53444387E+00  0.00000000E+00
  0.11024016E+01  0.58924592E+00  0.00000000E+00
  0.10721608E+01  0.64262843E+00  0.00000000E+00
  0.10393370E+01  0.69446279E+00  0.00000000E+00
  0.10040094E+01  0.74462413E+00  0.00000000E+00
  0.96626307E+00  0.79299161E+00  0.00000000E+00
  0.92618891E+00  0.83944869E+00  0.00000000E+00
  0.88388348E+00  0.88388348E+00  0.00000000E+00
  0.83944869E+00  0.92618891E+00  0.00000000E+00
  0.79299161E+00  0.96626307E+00  0.00000000E+00
  0.74462413E+00  0.10040094E+01  0.00000000E+00
  0.69446279E+00  0.10393370E+01  0.00000000E+00
  0.64262843E+00  0.10721608E+01  0.00000000E+00
  0.58924592E+00  0.11024016E+01  0.00000000E+00
  0.53444387E+00  0.11299866E+01  0.00000000E+00
  0.47835429E+00  0.11548494E+01  0.00000000E+00
  0.42111232E+00  0.11769301E+01  0.00000000E+00
  0.36285585E+00  0.11961754E+01  0.00000000E+00
  0.30372522E+00  0.12125391E+01  0.00000000E+00
  0.24386290E+00  0.12259816E+01  0.00000000E+00
  0.18341309E+00  0.12364706E+01  0.00000000E+00
  0.12252143E+00  0.12439809E+01  0.00000000E+00
  0.61334593E-01  0.12484943E+01  0.00000000E+00
  0.00000000E+00  0.12500000E+01  0.00000000E+00
  0.13125000E+01  0.00000000E+00  0.00000000E+00
  0.13109190E+01  0.64401323E-01  0.00000000E+00
  0.13061800E+01  0.12864750E+00  0.00000000E+00
  0.12982942E+01  0.19258375E+00  0.00000000E+00
  0.12872807E+01  0.25605605E+00  0.00000000E+00
  0.12731660E+01  0.31891149E+00  0.00000000E+00
  0.12559842E+01  0.38099864E+00  0.00000000E+00
  0.12357766E+01  0.44216793E+00  0.00000000E+00
  0.12125919E+01  0.50227201E+00  0.00000000E+00
  0.11864859E+01  0.56116606E+00  0.00000000E+00
  0.11575217E+01  0.61870822E+00  0.00000000E+00
  0.11257688E+01  0.67475985E+00  0.00000000E+00
  0.10913039E+01  0.72918593E+00  0.00000000E+00
  0.10542099E+01  0.78185534E+00  0.00000000E+00
  0.10145762E+01  0.83264119E+00  0.00000000E+00
  0.97249835E+00  0.88142113E+00  0.00000000E+00
  0.92807765E+00  0.92807765E+00  0.00000000E+00
  0.88142113E+00  0.97249835E+00  0.00000000E+00
  0.83264119E+00  0.10145762E+01  0.00000000E+00
  0.78185534E+00  0.10542099E+01  0.00000000E+00
  0.72918593E+00  0.10913039E+01  0.00000000E+00
  0.67475985E+00  0.11257688E+01  0.00000000E+00
  0.61870822E+00  0.11575217E+01  0.00000000E+00
  0.56116606E+00  0.11864859E+01  0.00000000E+00
  0.50227201E+00  0.12125919E+01  0.00000000E+00
  0.44216793E+00  0.12357766E+01  0.00000000E+00
  0.38099864E+00  0.12559842E+01  0.00000000E+00
  0.31891149E+00  0.12731660E+01  0.00000000E+00
  0.25605605E+00  0.12872807E+01  0.00000000E+00
  0.19258375E+00  0.12982942E+01  0.00000000E+00
  0.12864750E+00  0.13061800E+01  0.00000000E+00
  0.64401323E-01  0.13109190E+01  0.00000000E+00
[...]
CELL_DATA      512
SCALARS sigma_r float 1
LOOKUP_TABLE default
 -0.92020486E+02
 -0.92020486E+02
 -0.92020485E+02
 -0.92020485E+02
 -0.92020484E+02
 -0.92020484E+02
 -0.92020485E+02
 -0.92020485E+02
 -0.92020485E+02
 -0.92020485E+02
 -0.92020486E+02
 -0.92020487E+02
 -0.92020487E+02
 -0.92020486E+02
 -0.92020485E+02
 -0.92020483E+02
 -0.92020483E+02
 -0.92020484E+02
 -0.92020486E+02
 -0.92020487E+02
 -0.92020487E+02
 -0.92020486E+02
 -0.92020485E+02
 -0.92020485E+02
 -0.92020485E+02
 -0.92020485E+02
 -0.92020484E+02
 -0.92020484E+02
 -0.92020485E+02
 -0.92020485E+02
 -0.92020486E+02
 -0.92020486E+02
 -0.78100689E+02
 -0.78100689E+02
 -0.78100688E+02
 -0.78100687E+02
 -0.78100686E+02
 -0.78100685E+02
 -0.78100684E+02
 -0.78100685E+02
 -0.78100686E+02
 -0.78100688E+02
 -0.78100690E+02
 -0.78100690E+02
 -0.78100689E+02
 -0.78100687E+02
 -0.78100687E+02
 -0.78100687E+02
 -0.78100687E+02
 -0.78100687E+02
 -0.78100688E+02
 -0.78100689E+02
 -0.78100690E+02
 -0.78100689E+02
 -0.78100688E+02
 -0.78100686E+02
 -0.78100685E+02
 -0.78100684E+02
 -0.78100685E+02
 -0.78100686E+02
 -0.78100687E+02
 -0.78100688E+02
 -0.78100689E+02
 -0.78100689E+02
 -0.66377345E+02
 -0.66377344E+02
 -0.66377343E+02
 -0.66377341E+02
 -0.66377339E+02
 -0.66377338E+02
 -0.66377339E+02
 -0.66377340E+02
 -0.66377341E+02
 -0.66377342E+02
 -0.66377342E+02
 -0.66377343E+02
 -0.66377343E+02
 -0.66377343E+02
 -0.66377342E+02
 -0.66377341E+02
 -0.66377341E+02
 -0.66377342E+02
 -0.66377343E+02
 -0.66377343E+02
 -0.66377343E+02
 -0.66377342E+02
 -0.66377342E+02
 -0.66377341E+02
 -0.66377340E+02
 -0.66377339E+02
 -0.66377338E+02
 -0.66377339E+02
 -0.66377341E+02
 -0.66377343E+02
 -0.66377344E+02
 -0.66377345E+02
 -0.56411487E+02
 -0.56411485E+02
 -0.56411484E+02
 -0.56411482E+02
 -0.56411482E+02
 -0.56411481E+02
 -0.56411481E+02
 -0.56411480E+02
 -0.56411480E+02
 -0.56411482E+02
 -0.56411484E+02
 -0.56411484E+02
 -0.56411484E+02
 -0.56411484E+02
 -0.56411484E+02
 -0.56411485E+02
 -0.56411485E+02
 -0.56411484E+02
 -0.56411484E+02
 -0.56411484E+02
 -0.56411484E+02
 -0.56411484E+02
 -0.56411482E+02
 -0.56411480E+02
 -0.56411480E+02
 -0.56411481E+02
 -0.56411481E+02
 -0.56411482E+02
 -0.56411482E+02
 -0.56411484E+02
 -0.56411485E+02
 -0.56411487E+02
 -0.47868578E+02
 -0.47868578E+02
 -0.47868577E+02
 -0.47868577E+02
 -0.47868576E+02
 -0.47868575E+02
 -0.47868575E+02
 -0.47868575E+02
 -0.47868575E+02
 -0.47868574E+02
 -0.47868573E+02
 -0.47868574E+02
 -0.47868576E+02
 -0.47868578E+02
 -0.47868579E+02
 -0.47868579E+02
 -0.47868579E+02
 -0.47868579E+02
 -0.47868578E+02
 -0.47868576E+02
 -0.47868574E+02
 -0.47868573E+02
 -0.47868574E+02
 -0.47868574E+02
 -0.47868575E+02
 -0.47868575E+02
 -0.47868575E+02
 -0.47868576E+02
 -0.47868577E+02
 -0.47868577E+02
 -0.47868577E+02
 -0.47868578E+02
 -0.40490058E+02
 -0.40490059E+02
 -0.40490060E+02
 -0.40490060E+02
 -0.40490060E+02
 -0.40490059E+02
 -0.40490059E+02
 -0.40490058E+02
 -0.40490058E+02
 -0.40490058E+02
 -0.40490058E+02
 -0.40490057E+02
 -0.40490057E+02
 -0.40490058E+02
 -0.40490061E+02
 -0.40490063E+02
 -0.40490063E+02
 -0.40490061E+02
 -0.40490058E+02
 -0.40490057E+02
 -0.40490057E+02
 -0.40490058E+02
 -0.40490058E+02
 -0.40490058E+02
 -0.40490058E+02
 -0.40490059E+02
 -0.40490059E+02
 -0.40490060E+02
 -0.40490060E+02
 -0.40490060E+02
 -0.40490059E+02
 -0.40490058E+02
 -0.34073539E+02
 -0.34073540E+02
 -0.34073541E+02
 -0.34073543E+02
 -0.34073544E+02
 -0.34073544E+02
 -0.34073543E+02
 -0.34073541E+02
 -0.34073540E+02
 -0.34073539E+02
 -0.34073540E+02
 -0.34073540E+02
 -0.34073542E+02
 -0.34073542E+02
 -0.34073542E+02
 -0.34073541E+02
 -0.34073541E+02
 -0.34073542E+02
 -0.34073542E+02
 -0.34073542E+02
 -0.34073540E+02
 -0.34073539E+02
 -0.34073539E+02
 -0.34073540E+02
 -0.34073541E+02
 -0.34073543E+02
 -0.34073544E+02
 -0.34073544E+02
 -0.34073543E+02
 -0.34073541E+02
 -0.34073540E+02
 -0.34073539E+02
 -0.28458768E+02
 -0.28458768E+02
 -0.28458770E+02
 -0.28458771E+02
 -0.28458773E+02
 -0.28458774E+02
 -0.28458774E+02
 -0.28458772E+02
 -0.28458770E+02
 -0.28458768E+02
 -0.28458768E+02
 -0.28458769E+02
 -0.28458770E+02
 -0.28458771E+02
 -0.28458771E+02
 -0.28458771E+02
 -0.28458771E+02
 -0.28458771E+02
 -0.28458771E+02
 -0.28458770E+02
 -0.28458769E+02
 -0.28458769E+02
 -0.28458769E+02
 -0.28458770E+02
 -0.28458772E+02
 -0.28458774E+02
 -0.28458775E+02
 -0.28458773E+02
 -0.28458772E+02
 -0.28458770E+02
 -0.28458769E+02
 -0.28458768E+02
 -0.23517525E+02
 -0.23517526E+02
 -0.23517527E+02
 -0.23517528E+02
 -0.23517529E+02
 -0.23517530E+02
 -0.23517530E+02
 -0.23517530E+02
 -0.23517529E+02
 -0.23517528E+02
 -0.23517526E+02
 -0.23517525E+02
 -0.23517525E+02
 -0.23517526E+02
 -0.23517528E+02
 -0.23517530E+02
 -0.23517530E+02
 -0.23517528E+02
 -0.23517526E+02
 -0.23517524E+02
 -0.23517525E+02
 -0.23517526E+02
 -0.23517527E+02
 -0.23517529E+02
 -0.23517530E+02
 -0.23517530E+02
 -0.23517530E+02
 -0.23517529E+02
 -0.23517528E+02
 -0.23517527E+02
 -0.23517525E+02
 -0.23517524E+02
 -0.19146233E+02
 -0.19146234E+02
 -0.19146235E+02
 -0.19146237E+02
 -0.19146237E+02
 -0.19146238E+02
 -0.19146238E+02
 -0.19146239E+02
 -0.19146239E+02
 -0.19146238E+02
 -0.19146236E+02
 -0.19146235E+02
 -0.19146235E+02
 -0.19146235E+02
 -0.19146235E+02
 -0.19146235E+02
 -0.19146235E+02
 -0.19146236E+02
 -0.19146236E+02
 -0.19146235E+02
 -0.19146235E+02
 -0.19146236E+02
 -0.19146238E+02
 -0.19146239E+02
 -0.19146239E+02
 -0.19146238E+02
 -0.19146238E+02
 -0.19146238E+02
 -0.19146237E+02
 -0.19146236E+02
 -0.19146234E+02
 -0.19146233E+02
 -0.15260492E+02
 -0.15260491E+02
 -0.15260492E+02
 -0.15260493E+02
 -0.15260494E+02
 -0.15260496E+02
 -0.15260496E+02
 -0.15260496E+02
 -0.15260495E+02
 -0.15260495E+02
 -0.15260495E+02
 -0.15260494E+02
 -0.15260493E+02
 -0.15260492E+02
 -0.15260491E+02
 -0.15260491E+02
 -0.15260491E+02
 -0.15260491E+02
 -0.15260492E+02
 -0.15260492E+02
 -0.15260493E+02
 -0.15260494E+02
 -0.15260494E+02
 -0.15260495E+02
 -0.15260496E+02
 -0.15260497E+02
 -0.15260496E+02
 -0.15260494E+02
 -0.15260492E+02
 -0.15260490E+02
 -0.15260490E+02
 -0.15260490E+02
 -0.11790956E+02
 -0.11790956E+02
 -0.11790957E+02
 -0.11790959E+02
 -0.11790961E+02
 -0.11790962E+02
 -0.11790963E+02
 -0.11790963E+02
 -0.11790962E+02
 -0.11790962E+02
 -0.11790961E+02
 -0.11790960E+02
 -0.11790959E+02
 -0.11790958E+02
 -0.11790958E+02
 -0.11790958E+02
 -0.11790958E+02
 -0.11790958E+02
 -0.11790959E+02
 -0.11790960E+02
 -0.11790961E+02
 -0.11790962E+02
 -0.11790962E+02
 -0.11790962E+02
 -0.11790962E+02
 -0.11790963E+02
 -0.11790963E+02
 -0.11790962E+02
 -0.11790960E+02
 -0.11790959E+02
 -0.11790958E+02
 -0.11790958E+02
 -0.86802448E+01
 -0.86802462E+01
 -0.86802481E+01
 -0.86802492E+01
 -0.86802493E+01
 -0.86802490E+01
 -0.86802486E+01
 -0.86802484E+01
 -0.86802485E+01
 -0.86802484E+01
 -0.86802479E+01
 -0.86802473E+01
 -0.86802473E+01
 -0.86802474E+01
 -0.86802469E+01
 -0.86802466E+01
 -0.86802471E+01
 -0.86802478E+01
 -0.86802475E+01
 -0.86802462E+01
 -0.86802456E+01
 -0.86802466E+01
 -0.86802483E+01
 -0.86802494E+01
 -0.86802496E+01
 -0.86802492E+01
 -0.86802486E+01
 -0.86802479E+01
 -0.86802471E+01
 -0.86802456E+01
 -0.86802436E+01
 -0.86802421E+01
 -0.58805234E+01
 -0.58805244E+01
 -0.58805262E+01
 -0.58805278E+01
 -0.58805289E+01
 -0.58805299E+01
 -0.58805309E+01
 -0.58805311E+01
 -0.58805297E+01
 -0.58805279E+01
 -0.58805269E+01
 -0.58805271E+01
 -0.58805280E+01
 -0.58805288E+01
 -0.58805293E+01
 -0.58805294E+01
 -0.58805286E+01
 -0.58805278E+01
 -0.58805282E+01
 -0.58805291E+01
 -0.58805291E+01
 -0.58805282E+01
 -0.58805276E+01
 -0.58805281E+01
 -0.58805292E+01
 -0.58805300E+01
 -0.58805304E+01
 -0.58805308E+01
 -0.58805306E+01
 -0.58805294E+01
 -0.58805278E+01
 -0.58805268E+01
 -0.33516868E+01
 -0.33516870E+01
 -0.33516875E+01
 -0.33516884E+01
 -0.33516890E+01
 -0.33516886E+01
 -0.33516872E+01
 -0.33516857E+01
 -0.33516851E+01
 -0.33516860E+01
 -0.33516872E+01
 -0.33516871E+01
 -0.33516862E+01
 -0.33516855E+01
 -0.33516858E+01
 -0.33516870E+01
 -0.33516882E+01
 -0.33516881E+01
 -0.33516867E+01
 -0.33516852E+01
 -0.33516850E+01
 -0.33516859E+01
 -0.33516868E+01
 -0.33516876E+01
 -0.33516882E+01
 -0.33516884E+01
 -0.33516879E+01
 -0.33516867E+01
 -0.33516850E+01
 -0.33516837E+01
 -0.33516830E+01
 -0.33516828E+01
 -0.10598688E+01
 -0.10598687E+01
 -0.10598690E+01
 -0.10598701E+01
 -0.10598713E+01
 -0.10598721E+01
 -0.10598726E+01
 -0.10598730E+01
 -0.10598728E+01
 -0.10598717E+01
 -0.10598704E+01
 -0.10598700E+01
 -0.10598709E+01
 -0.10598723E+01
 -0.10598731E+01
 -0.10598727E+01
 -0.10598713E+01
 -0.10598702E+01
 -0.10598707E+01
 -0.10598719E+01
 -0.10598723E+01
 -0.10598715E+01
 -0.10598704E+01
 -0.10598698E+01
 -0.10598701E+01
 -0.10598713E+01
 -0.10598729E+01
 -0.10598739E+01
 -0.10598738E+01
 -0.10598732E+01
 -0.10598730E+01
 -0.10598731E+01
SCALARS sigma_theta float 1
LOOKUP_TABLE default
  0.15873816E+03
  0.15873816E+03
  0.15873816E+03
  0.15873816E+03
  0.15873816E+03
  0.15873816E+03
  0.15873816E+03
  0.15873816E+03
  0.15873816E+03
  0.15873816E+03
  0.15873816E+03
  0.15873816E+03
  0.15873816E+03
  0.15873816E+03
  0.15873816E+03
  0.15873816E+03
  0.15873815E+03
  0.15873816E+03
  0.15873816E+03
  0.15873816E+03
  0.15873816E+03
  0.15873816E+03
  0.15873816E+03
  0.15873816E+03
  0.15873816E+03
  0.15873816E+03
  0.15873816E+03
  0.15873816E+03
  0.15873816E+03
  0.15873816E+03
  0.15873816E+03
  0.15873816E+03
  0.14480346E+03
  0.14480346E+03
  0.14480346E+03
  0.14480346E+03
  0.14480346E+03
  0.14480346E+03
  0.14480346E+03
  0.14480346E+03
  0.14480346E+03
  0.14480346E+03
  0.14480346E+03
  0.14480346E+03
  0.14480346E+03
  0.14480346E+03
  0.14480346E+03
  0.14480346E+03
  0.14480346E+03
  0.14480346E+03
  0.14480346E+03
  0.14480346E+03
  0.14480346E+03
  0.14480346E+03
  0.14480346E+03
  0.14480346E+03
  0.14480346E+03
  0.14480346E+03
  0.14480346E+03
  0.14480346E+03
  0.14480346E+03
  0.14480346E+03
  0.14480346E+03
  0.14480346E+03
  0.13306892E+03
  0.13306892E+03
  0.13306892E+03
  0.13306892E+03
  0.13306892E+03
  0.13306892E+03
  0.13306892E+03
  0.13306892E+03
  0.13306892E+03
  0.13306892E+03
  0.13306892E+03
  0.13306892E+03
  0.13306892E+03
  0.13306892E+03
  0.13306892E+03
  0.13306892E+03
  0.13306892E+03
  0.13306892E+03
  0.13306892E+03
  0.13306892E+03
  0.13306892E+03
  0.13306892E+03
  0.13306892E+03
  0.13306892E+03
  0.13306892E+03
  0.13306892E+03
  0.13306892E+03
  0.13306892E+03
  0.13306892E+03
  0.13306892E+03
  0.13306892E+03
  0.13306892E+03
  0.12309453E+03
  0.12309453E+03
  0.12309453E+03
  0.12309452E+03
  0.12309452E+03
  0.12309452E+03
  0.12309452E+03
  0.12309452E+03
  0.12309452E+03
  0.12309452E+03
  0.12309452E+03
  0.12309452E+03
  0.12309452E+03
  0.12309453E+03
  0.12309453E+03
  0.12309453E+03
  0.12309453E+03
  0.12309453E+03
  0.12309453E+03
  0.12309452E+03
  0.12309452E+03
  0.12309452E+03
  0.12309452E+03
  0.12309452E+03
  0.12309452E+03
  0.12309452E+03
  0.12309452E+03
  0.12309452E+03
  0.12309452E+03
  0.12309453E+03
  0.12309453E+03
  0.12309453E+03
  0.11454501E+03
  0.11454501E+03
  0.11454501E+03
  0.11454501E+03
  0.11454501E+03
  0.11454501E+03
  0.11454501E+03
  0.11454501E+03
  0.11454501E+03
  0.11454501E+03
  0.11454501E+03
  0.11454501E+03
  0.11454501E+03
  0.11454501E+03
  0.11454501E+03
  0.11454501E+03
  0.11454501E+03
  0.11454501E+03
  0.11454501E+03
  0.11454501E+03
  0.11454501E+03
  0.11454501E+03
  0.11454501E+03
  0.11454501E+03
  0.11454501E+03
  0.11454501E+03
  0.11454501E+03
  0.11454501E+03
  0.11454501E+03
  0.11454501E+03
  0.11454501E+03
  0.11454501E+03
  0.10716132E+03
  0.10716132E+03
  0.10716132E+03
  0.10716132E+03
  0.10716131E+03
  0.10716131E+03
  0.10716131E+03
  0.10716131E+03
  0.10716131E+03
  0.10716131E+03
  0.10716132E+03
  0.10716132E+03
  0.10716132E+03
  0.10716132E+03
  0.10716132E+03
  0.10716132E+03
  0.10716132E+03
  0.10716132E+03
  0.10716132E+03
  0.10716132E+03
  0.10716132E+03
  0.10716132E+03
  0.10716131E+03
  0.10716131E+03
  0.10716131E+03
  0.10716131E+03
  0.10716131E+03
  0.10716131E+03
  0.10716132E+03
  0.10716132E+03
  0.10716132E+03
  0.10716132E+03
  0.10074070E+03
  0.10074070E+03
  0.10074070E+03
  0.10074070E+03
  0.10074070E+03
  0.10074069E+03
  0.10074069E+03
  0.10074069E+03
  0.10074069E+03
  0.10074070E+03
  0.10074070E+03
  0.10074070E+03
  0.10074070E+03
  0.10074070E+03
  0.10074070E+03
  0.10074070E+03
  0.10074070E+03
  0.10074070E+03
  0.10074070E+03
  0.10074070E+03
  0.10074070E+03
  0.10074070E+03
  0.10074070E+03
  0.10074070E+03
  0.10074069E+03
  0.10074069E+03
  0.10074069E+03
  0.10074070E+03
  0.10074070E+03
  0.10074070E+03
  0.10074070E+03
  0.10074070E+03
  0.95122644E+02
  0.95122644E+02
  0.95122644E+02
  0.95122642E+02
  0.95122641E+02
  0.95122640E+02
  0.95122640E+02
  0.95122640E+02
  0.95122641E+02
  0.95122642E+02
  0.95122642E+02
  0.95122643E+02
  0.95122643E+02
  0.95122643E+02
  0.95122642E+02
  0.95122642E+02
  0.95122642E+02
  0.95122642E+02
  0.95122643E+02
  0.95122643E+02
  0.95122643E+02
  0.95122642E+02
  0.95122642E+02
  0.95122641E+02
  0.95122640E+02
  0.95122639E+02
  0.95122640E+02
  0.95122641E+02
  0.95122642E+02
  0.95122643E+02
  0.95122644E+02
  0.95122644E+02
  0.90178747E+02
  0.90178746E+02
  0.90178745E+02
  0.90178744E+02
  0.90178743E+02
  0.90178743E+02
  0.90178743E+02
  0.90178743E+02
  0.90178743E+02
  0.90178744E+02
  0.90178745E+02
  0.90178746E+02
  0.90178746E+02
  0.90178745E+02
  0.90178744E+02
  0.90178743E+02
  0.90178743E+02
  0.90178744E+02
  0.90178745E+02
  0.90178746E+02
  0.90178746E+02
  0.90178745E+02
  0.90178744E+02
  0.90178743E+02
  0.90178743E+02
  0.90178743E+02
  0.90178743E+02
  0.90178743E+02
  0.90178744E+02
  0.90178745E+02
  0.90178746E+02
  0.90178747E+02
  0.85805291E+02
  0.85805291E+02
  0.85805289E+02
  0.85805288E+02
  0.85805288E+02
  0.85805288E+02
  0.85805288E+02
  0.85805287E+02
  0.85805288E+02
  0.85805289E+02
  0.85805290E+02
  0.85805291E+02
  0.85805290E+02
  0.85805289E+02
  0.85805289E+02
  0.85805288E+02
  0.85805288E+02
  0.85805289E+02
  0.85805289E+02
  0.85805290E+02
  0.85805290E+02
  0.85805290E+02
  0.85805289E+02
  0.85805288E+02
  0.85805287E+02
  0.85805288E+02
  0.85805288E+02
  0.85805288E+02
  0.85805288E+02
  0.85805289E+02
  0.85805290E+02
  0.85805291E+02
  0.81917768E+02
  0.81917768E+02
  0.81917768E+02
  0.81917768E+02
  0.81917767E+02
  0.81917766E+02
  0.81917766E+02
  0.81917766E+02
  0.81917766E+02
  0.81917766E+02
  0.81917767E+02
  0.81917767E+02
  0.81917768E+02
  0.81917768E+02
  0.81917768E+02
  0.81917768E+02
  0.81917768E+02
  0.81917768E+02
  0.81917768E+02
  0.81917768E+02
  0.81917767E+02
  0.81917767E+02
  0.81917767E+02
  0.81917766E+02
  0.81917766E+02
  0.81917766E+02
  0.81917766E+02
  0.81917767E+02
  0.81917768E+02
  0.81917768E+02
  0.81917768E+02
  0.81917768E+02
  0.78446761E+02
  0.78446762E+02
  0.78446762E+02
  0.78446763E+02
  0.78446762E+02
  0.78446761E+02
  0.78446760E+02
  0.78446760E+02
  0.78446759E+02
  0.78446759E+02
  0.78446759E+02
  0.78446760E+02
  0.78446761E+02
  0.78446762E+02
  0.78446763E+02
  0.78446763E+02
  0.78446763E+02
  0.78446763E+02
  0.78446762E+02
  0.78446761E+02
  0.78446760E+02
  0.78446759E+02
  0.78446759E+02
  0.78446759E+02
  0.78446760E+02
  0.78446760E+02
  0.78446761E+02
  0.78446762E+02
  0.78446762E+02
  0.78446762E+02
  0.78446761E+02
  0.78446761E+02
  0.75334821E+02
  0.75334821E+02
  0.75334821E+02
  0.75334821E+02
  0.75334822E+02
  0.75334821E+02
  0.75334820E+02
  0.75334819E+02
  0.75334818E+02
  0.75334818E+02
  0.75334818E+02
  0.75334820E+02
  0.75334821E+02
  0.75334822E+02
  0.75334823E+02
  0.75334824E+02
  0.75334824E+02
  0.75334823E+02
  0.75334822E+02
  0.75334821E+02
  0.75334820E+02
  0.75334819E+02
  0.75334818E+02
  0.75334818E+02
  0.75334819E+02
  0.75334820E+02
  0.75334822E+02
  0.75334822E+02
  0.75334822E+02
  0.75334822E+02
  0.75334822E+02
  0.75334822E+02
  0.72534073E+02
  0.72534073E+02
  0.72534073E+02
  0.72534073E+02
  0.72534073E+02
  0.72534072E+02
  0.72534070E+02
  0.72534069E+02
  0.72534068E+02
  0.72534069E+02
  0.72534069E+02
  0.72534071E+02
  0.72534072E+02
  0.72534073E+02
  0.72534074E+02
  0.72534074E+02
  0.72534074E+02
  0.72534074E+02
  0.72534073E+02
  0.72534071E+02
  0.72534070E+02
  0.72534069E+02
  0.72534069E+02
  0.72534069E+02
  0.72534069E+02
  0.72534070E+02
  0.72534072E+02
  0.72534072E+02
  0.72534072E+02
  0.72534072E+02
  0.72534072E+02
  0.72534072E+02
  0.70004361E+02
  0.70004361E+02
  0.70004361E+02
  0.70004361E+02
  0.70004360E+02
  0.70004360E+02
  0.70004359E+02
  0.70004358E+02
  0.70004358E+02
  0.70004358E+02
  0.70004358E+02
  0.70004359E+02
  0.70004360E+02
  0.70004362E+02
  0.70004362E+02
  0.70004362E+02
  0.70004362E+02
  0.70004362E+02
  0.70004361E+02
  0.70004361E+02
  0.70004359E+02
  0.70004358E+02
  0.70004357E+02
  0.70004357E+02
  0.70004357E+02
  0.70004358E+02
  0.70004360E+02
  0.70004361E+02
  0.70004362E+02
  0.70004362E+02
  0.70004362E+02
  0.70004362E+02
  0.67711810E+02
  0.67711810E+02
  0.67711810E+02
  0.67711808E+02
  0.67711807E+02
  0.67711806E+02
  0.67711805E+02
  0.67711804E+02
  0.67711804E+02
  0.67711805E+02
  0.67711806E+02
  0.67711807E+02
  0.67711808E+02
  0.67711808E+02
  0.67711808E+02
  0.67711808E+02
  0.67711809E+02
  0.67711809E+02
  0.67711808E+02
  0.67711807E+02
  0.67711806E+02
  0.67711806E+02
  0.67711805E+02
  0.67711805E+02
  0.67711805E+02
  0.67711805E+02
  0.67711805E+02
  0.67711806E+02
  0.67711807E+02
  0.67711808E+02
  0.67711809E+02
  0.67711809E+02
SCALARS tau_rtheta float 1
LOOKUP_TABLE default
  0.90377199E-08
 -0.95553787E-08
 -0.17173938E-06
 -0.49812480E-06
 -0.81278442E-06
 -0.94459897E-06
 -0.78423272E-06
 -0.45152330E-06
  0.10640975E-06
  0.75282036E-06
  0.13337060E-05
  0.15023914E-05
  0.13768557E-05
  0.10045514E-05
  0.61676590E-06
  0.19926790E-06
 -0.20600352E-06
 -0.59774581E-06
 -0.10322235E-05
 -0.13450717E-05
 -0.15336772E-05
 -0.13062430E-05
 -0.77461972E-06
 -0.90584791E-07
  0.44098409E-06
  0.79072094E-06
  0.94098660E-06
  0.81467080E-06
  0.49733759E-06
  0.17204716E-06
  0.95552615E-08
 -0.91112273E-08
  0.46018347E-06
  0.11970420E-05
  0.15428026E-05
  0.14882059E-05
  0.12271902E-05
  0.88592416E-06
  0.50181471E-06
 -0.19965618E-07
 -0.57817866E-06
 -0.11340962E-05
 -0.14762221E-05
 -0.16474383E-05
 -0.16043380E-05
 -0.14297831E-05
 -0.97531275E-06
 -0.36622847E-06
  0.35963533E-06
  0.99356845E-06
  0.14025566E-05
  0.16360643E-05
  0.16151651E-05
  0.15055678E-05
  0.11097146E-05
  0.59694122E-06
  0.65558439E-08
 -0.49286228E-06
 -0.89166070E-06
 -0.12238756E-05
 -0.14902232E-05
 -0.15417951E-05
 -0.11976921E-05
 -0.45979111E-06
  0.41929387E-06
  0.11455920E-05
  0.15617555E-05
  0.14913276E-05
  0.91868502E-06
  0.73883086E-08
 -0.84374493E-06
 -0.13206825E-05
 -0.13305975E-05
 -0.11253060E-05
 -0.89461067E-06
 -0.78177595E-06
 -0.73966852E-06