# vtk DataFile Version 2.0
MEF - Elasticidade Plana 2D
ASCII
DATASET UNSTRUCTURED_GRID
POINTS     2145 float
  0.10000000E+01  0.00000000E+00  0.00000000E+00
  0.99969882E+00  0.24541229E-01  0.00000000E+00
  0.99879546E+00  0.49067674E-01  0.00000000E+00
  0.99729046E+00  0.73564564E-01  0.00000000E+00
  0.99518473E+00  0.98017140E-01  0.00000000E+00
  0.99247953E+00  0.12241068E+00  0.00000000E+00
  0.98917651E+00  0.14673047E+00  0.00000000E+00
  0.98527764E+00  0.17096189E+00  0.00000000E+00
  0.98078528E+00  0.19509032E+00  0.00000000E+00
  0.97570213E+00  0.21910124E+00  0.00000000E+00
  0.97003125E+00  0.24298018E+00  0.00000000E+00
  0.96377607E+00  0.26671276E+00  0.00000000E+00
  0.95694034E+00  0.29028468E+00  0.00000000E+00
  0.94952818E+00  0.31368174E+00  0.00000000E+00
  0.94154407E+00  0.33688985E+00  0.00000000E+00
  0.93299280E+00  0.35989504E+00  0.00000000E+00
  0.92387953E+00  0.38268343E+00  0.00000000E+00
  0.91420976E+00  0.40524131E+00  0.00000000E+00
  0.90398929E+00  0.42755509E+00  0.00000000E+00
  0.89322430E+00  0.44961133E+00  0.00000000E+00
  0.88192126E+00  0.47139674E+00  0.00000000E+00
  0.87008699E+00  0.49289819E+00  0.00000000E+00
  0.85772861E+00  0.51410274E+00  0.00000000E+00
  0.84485357E+00  0.53499762E+00  0.00000000E+00
  0.83146961E+00  0.55557023E+00  0.00000000E+00
  0.81758481E+00  0.57580819E+00  0.00000000E+00
  0.80320753E+00  0.59569930E+00  0.00000000E+00
  0.78834643E+00  0.61523159E+00  0.00000000E+00
  0.77301045E+00  0.63439328E+00  0.00000000E+00
  0.75720885E+00  0.65317284E+00  0.00000000E+00
  0.74095113E+00  0.67155895E+00  0.00000000E+00
  0.72424708E+00  0.68954054E+00  0.00000000E+00
  0.70710678E+00  0.70710678E+00  0.00000000E+00
  0.68954054E+00  0.72424708E+00  0.00000000E+00
  0.67155895E+00  0.74095113E+00  0.00000000E+00
  0.65317284E+00  0.75720885E+00  0.00000000E+00
  0.63439328E+00  0.77301045E+00  0.00000000E+00
  0.61523159E+00  0.78834643E+00  0.00000000E+00
  0.59569930E+00  0.80320753E+00  0.00000000E+00
  0.57580819E+00  0.81758481E+00  0.00000000E+00
  0.55557023E+00  0.83146961E+00  0.00000000E+00
  0.53499762E+00  0.84485357E+00  0.00000000E+00
  0.51410274E+00  0.85772861E+00  0.00000000E+00
  0.49289819E+00  0.87008699E+00  0.00000000E+00
  0.47139674E+00  0.88192126E+00  0.00000000E+00
  0.44961133E+00  0.89322430E+00  0.00000000E+00
  0.42755509E+00  0.90398929E+00  0.00000000E+00
  0.40524131E+00  0.91420976E+00  0.00000000E+00
  0.38268343E+00  0.92387953E+00  0.00000000E+00
  0.35989504E+00  0.93299280E+00  0.00000000E+00
  0.33688985E+00  0.94154407E+00  0.00000000E+00
  0.31368174E+00  0.94952818E+00  0.00000000E+00
  0.29028468E+00  0.95694034E+00  0.00000000E+00
  0.26671276E+00  0.96377607E+00  0.00000000E+00
  0.24298018E+00  0.97003125E+00  0.00000000E+00
  0.21910124E+00  0.97570213E+00  0.00000000E+00
  0.19509032E+00  0.98078528E+00  0.00000000E+00
  0.17096189E+00  0.98527764E+00  0.00000000E+00
  0.14673047E+00  0.98917651E+00  0.00000000E+00
  0.12241068E+00  0.99247953E+00  0.00000000E+00
  0.98017140E-01  0.99518473E+00  0.00000000E+00
  0.73564564E-01  0.99729046E+00  0.00000000E+00
  0.49067674E-01  0.99879546E+00  0.00000000E+00
  0.24541229E-01  0.99969882E+00  0.00000000E+00
  0.00000000E+00  0.10000000E+01  0.00000000E+00
  0.10312500E+01  0.00000000E+00  0.00000000E+00
  0.10309394E+01  0.25308142E-01  0.00000000E+00
  0.10300078E+01  0.50601039E-01  0.00000000E+00
  0.10284558E+01  0.75863456E-01  0.00000000E+00
  0.10262842E+01  0.10108018E+00  0.00000000E+00
  0.10234945E+01  0.12623601E+00  0.00000000E+00
  0.10200883E+01  0.15131580E+00  0.00000000E+00
  0.10160676E+01  0.17630445E+00  0.00000000E+00
  0.10114348E+01  0.20118689E+00  0.00000000E+00
  0.10061928E+01  0.22594815E+00  0.00000000E+00
  0.10003447E+01  0.25057331E+00  0.00000000E+00
  0.99389407E+00  0.27504753E+00  0.00000000E+00
  0.98684472E+00  0.29935607E+00  0.00000000E+00
  0.97920094E+00  0.32348429E+00  0.00000000E+00
  0.97096732E+00  0.34741766E+00  0.00000000E+00
  0.96214882E+00  0.37114176E+00  0.00000000E+00
  0.95275077E+00  0.39464229E+00  0.00000000E+00
  0.94277881E+00  0.41790511E+00  0.00000000E+00
  0.93223896E+00  0.44091619E+00  0.00000000E+00
  0.92113756E+00  0.46366168E+00  0.00000000E+00
  0.90948130E+00  0.48612788E+00  0.00000000E+00
  0.89727721E+00  0.50830126E+00  0.00000000E+00
  0.88453263E+00  0.53016845E+00  0.00000000E+00
  0.87125524E+00  0.55171630E+00  0.00000000E+00
  0.85745304E+00  0.57293180E+00  0.00000000E+00
  0.84313434E+00  0.59380220E+00  0.00000000E+00
  0.82830777E+00  0.61431491E+00  0.00000000E+00
  0.81298225E+00  0.63445758E+00  0.00000000E+00
  0.79716703E+00  0.65421807E+00  0.00000000E+00
  0.78087162E+00  0.67358449E+00  0.00000000E+00
  0.76410585E+00  0.69254517E+00  0.00000000E+00
  0.74687980E+00  0.71108869E+00  0.00000000E+00
  0.72920387E+00  0.72920387E+00  0.00000000E+00
  0.71108869E+00  0.74687980E+00  0.00000000E+00
  0.69254517E+00  0.76410585E+00  0.00000000E+00
  0.67358449E+00  0.78087162E+00  0.00000000E+00
  0.65421807E+00  0.79716703E+00  0.00000000E+00
  0.63445758E+00  0.81298225E+00  0.00000000E+00
  0.61431491E+00  0.82830777E+00  0.00000000E+00
  0.59380220E+00  0.84313434E+00  0.00000000E+00
  0.57293180E+00  0.85745304E+00  0.00000000E+00
  0.55171630E+00  0.87125524E+00  0.00000000E+00
  0.53016845E+00  0.88453263E+00  0.00000000E+00
  0.50830126E+00  0.89727721E+00  0.00000000E+00
  0.48612788E+00  0.90948130E+00  0.00000000E+00
  0.46366168E+00  0.92113756E+00  0.00000000E+00
  0.44091619E+00  0.93223896E+00  0.00000000E+00
  0.41790511E+00  0.94277881E+00  0.00000000E+00
  0.39464229E+00  0.95275077E+00  0.00000000E+00
  0.37114176E+00  0.96214882E+00  0.00000000E+00
  0.34741766E+00  0.97096732E+00  0.00000000E+00
  0.32348429E+00  0.97920094E+00  0.00000000E+00
  0.29935607E+00  0.98684472E+00  0.00000000E+00
  0.27504753E+00  0.99389407E+00  0.00000000E+00
  0.25057331E+00  0.10003447E+01  0.00000000E+00
  0.22594815E+00  0.10061928E+01  0.00000000E+00
  0.20118689E+00  0.10114348E+01  0.00000000E+00
  0.17630445E+00  0.10160676E+01  0.00000000E+00
  0.15131580E+00  0.10200883E+01  0.00000000E+00
  0.12623601E+00  0.10234945E+01  0.00000000E+00
  0.10108018E+00  0.10262842E+01  0.00000000E+00
  0.75863456E-01  0.10284558E+01  0.00000000E+00
  0.50601039E-01  0.10300078E+01  0.00000000E+00
  0.25308142E-01  0.10309394E+01  0.00000000E+00
  0.00000000E+00  0.10312500E+01  0.00000000E+00
  0.10625000E+01  0.00000000E+00  0.00000000E+00
  0.10621800E+01  0.26075055E-01  0.00000000E+00
  0.10612202E+01  0.52134404E-01  0.00000000E+00
  0.10596211E+01  0.78162349E-01  0.00000000E+00
  0.10573838E+01  0.10414321E+00  0.00000000E+00
  0.10545095E+01  0.13006134E+00  0.00000000E+00
  0.10510000E+01  0.15590113E+00  0.00000000E+00
  0.10468575E+01  0.18164701E+00  0.00000000E+00
  0.10420844E+01  0.20728347E+00  0.00000000E+00
  0.10366835E+01  0.23279507E+00  0.00000000E+00
  0.10306582E+01  0.25816644E+00  0.00000000E+00
  0.10240121E+01  0.28338230E+00  0.00000000E+00
  0.10167491E+01  0.30842747E+00  0.00000000E+00
  0.10088737E+01  0.33328685E+00  0.00000000E+00
  0.10003906E+01  0.35794547E+00  0.00000000E+00
  0.99130485E+00  0.38238848E+00  0.00000000E+00
  0.98162200E+00  0.40660115E+00  0.00000000E+00
  0.97134787E+00  0.43056890E+00  0.00000000E+00
  0.96048862E+00  0.45427729E+00  0.00000000E+00
  0.94905082E+00  0.47771204E+00  0.00000000E+00
  0.93704134E+00  0.50085903E+00  0.00000000E+00
  0.92446743E+00  0.52370433E+00  0.00000000E+00
  0.91133665E+00  0.54623417E+00  0.00000000E+00
  0.89765691E+00  0.56843497E+00  0.00000000E+00
  0.88343646E+00  0.59029337E+00  0.00000000E+00
  0.86868386E+00  0.61179620E+00  0.00000000E+00
  0.85340800E+00  0.63293051E+00  0.00000000E+00
  0.83761808E+00  0.65368357E+00  0.00000000E+00
  0.82132361E+00  0.67404286E+00  0.00000000E+00
  0.80453440E+00  0.69399615E+00  0.00000000E+00
  0.78726057E+00  0.71353139E+00  0.00000000E+00
  0.76951253E+00  0.73263683E+00  0.00000000E+00
  0.75130096E+00  0.75130096E+00  0.00000000E+00
  0.73263683E+00  0.76951253E+00  0.00000000E+00
  0.71353139E+00  0.78726057E+00  0.00000000E+00
  0.69399615E+00  0.80453440E+00  0.00000000E+00
  0.67404286E+00  0.82132361E+00  0.00000000E+00
  0.65368357E+00  0.83761808E+00  0.00000000E+00
  0.63293051E+00  0.85340800E+00  0.00000000E+00
  0.61179620E+00  0.86868386E+00  0.00000000E+00
  0.59029337E+00  0.88343646E+00  0.00000000E+00
  0.56843497E+00  0.89765691E+00  0.00000000E+00
  0.54623417E+00  0.91133665E+00  0.00000000E+00
  0.52370433E+00  0.92446743E+00  0.00000000E+00
  0.50085903E+00  0.93704134E+00  0.00000000E+00
  0.47771204E+00  0.94905082E+00  0.00000000E+00
  0.45427729E+00  0.96048862E+00  0.00000000E+00
  0.43056890E+00  0.97134787E+00  0.00000000E+00
  0.40660115E+00  0.98162200E+00  0.00000000E+00
  0.38238848E+00  0.99130485E+00  0.00000000E+00
  0.35794547E+00  0.10003906E+01  0.00000000E+00
  0.33328685E+00  0.10088737E+01  0.00000000E+00
  0.30842747E+00  0.10167491E+01  0.00000000E+00
  0.28338230E+00  0.10240121E+01  0.00000000E+00
  0.25816644E+00  0.10306582E+01  0.00000000E+00
  0.23279507E+00  0.10366835E+01  0.00000000E+00
  0.20728347E+00  0.10420844E+01  0.00000000E+00
  0.18164701E+00  0.10468575E+01  0.00000000E+00
  0.15590113E+00  0.10510000E+01  0.00000000E+00
  0.13006134E+00  0.10545095E+01  0.00000000E+00
  0.10414321E+00  0.10573838E+01  0.00000000E+00
  0.78162349E-01  0.10596211E+01  0.00000000E+00
  0.52134404E-01  0.10612202E+01  0.00000000E+00
  0.26075055E-01  0.10621800E+01  0.00000000E+00
  0.00000000E+00  0.10625000E+01  0.00000000E+00
  0.10937500E+01  0.00000000E+00  0.00000000E+00
  0.10934206E+01  0.26841969E-01  0.00000000E+00
[...]
CELL_DATA     2048
SCALARS sigma_r float 1
LOOKUP_TABLE default
 -0.95923755E+02
 -0.95923755E+02
 -0.95923755E+02
 -0.95923756E+02
 -0.95923756E+02
 -0.95923755E+02
 -0.95923754E+02
 -0.95923754E+02
 -0.95923753E+02
 -0.95923754E+02
 -0.95923754E+02
 -0.95923755E+02
 -0.95923756E+02
 -0.95923756E+02
 -0.95923756E+02
 -0.95923755E+02
 -0.95923755E+02
 -0.95923754E+02
 -0.95923754E+02
 -0.95923754E+02
 -0.95923755E+02
 -0.95923755E+02
 -0.95923756E+02
 -0.95923756E+02
 -0.95923757E+02
 -0.95923756E+02
 -0.95923756E+02
 -0.95923755E+02
 -0.95923754E+02
 -0.95923753E+02
 -0.95923753E+02
 -0.95923753E+02
 -0.95923753E+02
 -0.95923753E+02
 -0.95923754E+02
 -0.95923754E+02
 -0.95923755E+02
 -0.95923756E+02
 -0.95923757E+02
 -0.95923756E+02
 -0.95923757E+02
 -0.95923756E+02
 -0.95923755E+02
 -0.95923755E+02
 -0.95923754E+02
 -0.95923754E+02
 -0.95923754E+02
 -0.95923755E+02
 -0.95923755E+02
 -0.95923756E+02
 -0.95923756E+02
 -0.95923756E+02
 -0.95923755E+02
 -0.95923754E+02
 -0.95923754E+02
 -0.95923753E+02
 -0.95923754E+02
 -0.95923754E+02
 -0.95923755E+02
 -0.95923756E+02
 -0.95923756E+02
 -0.95923755E+02
 -0.95923755E+02
 -0.95923755E+02
 -0.88321632E+02
 -0.88321632E+02
 -0.88321633E+02
 -0.88321633E+02
 -0.88321633E+02
 -0.88321633E+02
 -0.88321633E+02
 -0.88321633E+02
 -0.88321633E+02
 -0.88321633E+02
 -0.88321633E+02
 -0.88321632E+02
 -0.88321632E+02
 -0.88321632E+02
 -0.88321632E+02
 -0.88321633E+02
 -0.88321633E+02
 -0.88321634E+02
 -0.88321634E+02
 -0.88321634E+02
 -0.88321633E+02
 -0.88321632E+02
 -0.88321632E+02
 -0.88321632E+02
 -0.88321632E+02
 -0.88321632E+02
 -0.88321633E+02
 -0.88321633E+02
 -0.88321634E+02
 -0.88321634E+02
 -0.88321634E+02
 -0.88321634E+02
 -0.88321634E+02
 -0.88321634E+02
 -0.88321634E+02
 -0.88321633E+02
 -0.88321634E+02
 -0.88321633E+02
 -0.88321633E+02
 -0.88321632E+02
 -0.88321632E+02
 -0.88321632E+02
 -0.88321633E+02
 -0.88321633E+02
 -0.88321634E+02
 -0.88321634E+02
 -0.88321634E+02
 -0.88321633E+02
 -0.88321633E+02
 -0.88321632E+02
 -0.88321632E+02
 -0.88321632E+02
 -0.88321632E+02
 -0.88321633E+02
 -0.88321633E+02
 -0.88321633E+02
 -0.88321633E+02
 -0.88321633E+02
 -0.88321633E+02
 -0.88321633E+02
 -0.88321633E+02
 -0.88321633E+02
 -0.88321632E+02
 -0.88321632E+02
 -0.81371004E+02
 -0.81371003E+02
 -0.81371003E+02
 -0.81371002E+02
 -0.81371002E+02
 -0.81371002E+02
 -0.81371002E+02
 -0.81371003E+02
 -0.81371003E+02
 -0.81371003E+02
 -0.81371002E+02
 -0.81371002E+02
 -0.81371001E+02
 -0.81371001E+02
 -0.81371001E+02
 -0.81371001E+02
 -0.81371001E+02
 -0.81371001E+02
 -0.81371001E+02
 -0.81371001E+02
 -0.81371002E+02
 -0.81371002E+02
 -0.81371003E+02
 -0.81371003E+02
 -0.81371003E+02
 -0.81371003E+02
 -0.81371003E+02
 -0.81371003E+02
 -0.81371003E+02
 -0.81371002E+02
 -0.81371002E+02
 -0.81371002E+02
 -0.81371002E+02
 -0.81371002E+02
 -0.81371003E+02
 -0.81371002E+02
 -0.81371003E+02
 -0.81371003E+02
 -0.81371003E+02
 -0.81371003E+02
 -0.81371003E+02
 -0.81371003E+02
 -0.81371002E+02
 -0.81371002E+02
 -0.81371001E+02
 -0.81371001E+02
 -0.81371001E+02
 -0.81371001E+02
 -0.81371001E+02
 -0.81371001E+02
 -0.81371001E+02
 -0.81371001E+02
 -0.81371002E+02
 -0.81371002E+02
 -0.81371003E+02
 -0.81371003E+02
 -0.81371003E+02
 -0.81371002E+02
 -0.81371002E+02
 -0.81371002E+02
 -0.81371002E+02
 -0.81371003E+02
 -0.81371003E+02
 -0.81371004E+02
 -0.74999491E+02
 -0.74999492E+02
 -0.74999492E+02
 -0.74999492E+02
 -0.74999492E+02
 -0.74999492E+02
 -0.74999492E+02
 -0.74999491E+02
 -0.74999491E+02
 -0.74999491E+02
 -0.74999491E+02
 -0.74999491E+02
 -0.74999491E+02
 -0.74999491E+02
 -0.74999490E+02
 -0.74999489E+02
 -0.74999489E+02
 -0.74999488E+02
 -0.74999489E+02
 -0.74999489E+02
 -0.74999490E+02
 -0.74999491E+02
 -0.74999492E+02
 -0.74999492E+02
 -0.74999492E+02
 -0.74999492E+02
 -0.74999492E+02
 -0.74999492E+02
 -0.74999493E+02
 -0.74999493E+02
 -0.74999493E+02
 -0.74999492E+02
 -0.74999493E+02
 -0.74999492E+02
 -0.74999493E+02
 -0.74999492E+02
 -0.74999492E+02
 -0.74999492E+02
 -0.74999492E+02
 -0.74999492E+02
 -0.74999492E+02
 -0.74999492E+02
 -0.74999491E+02
 -0.74999490E+02
 -0.74999489E+02
 -0.74999489E+02
 -0.74999488E+02
 -0.74999489E+02
 -0.74999489E+02
 -0.74999490E+02
 -0.74999491E+02
 -0.74999491E+02
 -0.74999491E+02
 -0.74999491E+02
 -0.74999491E+02
 -0.74999491E+02
 -0.74999491E+02
 -0.74999492E+02
 -0.74999492E+02
 -0.74999492E+02
 -0.74999492E+02
 -0.74999492E+02
 -0.74999492E+02
 -0.74999491E+02
 -0.69144505E+02
 -0.69144506E+02
 -0.69144506E+02
 -0.69144506E+02
 -0.69144507E+02
 -0.69144507E+02
 -0.69144506E+02
 -0.69144506E+02
 -0.69144505E+02
 -0.69144504E+02
 -0.69144504E+02
 -0.69144503E+02
 -0.69144502E+02
 -0.69144502E+02
 -0.69144502E+02
 -0.69144503E+02
 -0.69144503E+02
 -0.69144504E+02
 -0.69144504E+02
 -0.69144504E+02
 -0.69144504E+02
 -0.69144503E+02
 -0.69144503E+02
 -0.69144503E+02
 -0.69144504E+02
 -0.69144505E+02
 -0.69144505E+02
 -0.69144506E+02
 -0.69144507E+02
 -0.69144507E+02
 -0.69144508E+02
 -0.69144508E+02
 -0.69144508E+02
 -0.69144508E+02
 -0.69144508E+02
 -0.69144507E+02
 -0.69144506E+02
 -0.69144505E+02
 -0.69144505E+02
 -0.69144504E+02
 -0.69144503E+02
 -0.69144503E+02
 -0.69144503E+02
 -0.69144504E+02
 -0.69144504E+02
 -0.69144504E+02
 -0.69144504E+02
 -0.69144503E+02
 -0.69144503E+02
 -0.69144502E+02
 -0.69144502E+02
 -0.69144502E+02
 -0.69144503E+02
 -0.69144504E+02
 -0.69144504E+02
 -0.69144505E+02
 -0.69144506E+02
 -0.69144506E+02
 -0.69144507E+02
 -0.69144507E+02
 -0.69144506E+02
 -0.69144506E+02
 -0.69144506E+02
 -0.69144505E+02
 -0.63751685E+02
 -0.63751685E+02
 -0.63751684E+02
 -0.63751684E+02
 -0.63751684E+02
 -0.63751683E+02
 -0.63751683E+02
 -0.63751684E+02
 -0.63751683E+02
 -0.63751683E+02
 -0.63751682E+02
 -0.63751681E+02
 -0.63751680E+02
 -0.63751680E+02
 -0.63751680E+02
 -0.63751680E+02
 -0.63751680E+02
 -0.63751681E+02
 -0.63751681E+02
 -0.63751682E+02
 -0.63751683E+02
 -0.63751683E+02
 -0.63751683E+02
 -0.63751684E+02
 -0.63751684E+02
 -0.63751684E+02
 -0.63751684E+02
 -0.63751684E+02
 -0.63751684E+02
 -0.63751684E+02
 -0.63751685E+02
 -0.63751685E+02
 -0.63751685E+02
 -0.63751685E+02
 -0.63751684E+02
 -0.63751684E+02
 -0.63751684E+02
 -0.63751684E+02
 -0.63751684E+02
 -0.63751684E+02
 -0.63751684E+02
 -0.63751683E+02
 -0.63751683E+02
 -0.63751683E+02
 -0.63751682E+02
 -0.63751681E+02
 -0.63751681E+02
 -0.63751680E+02
 -0.63751680E+02
 -0.63751680E+02
 -0.63751680E+02
 -0.63751680E+02
 -0.63751681E+02
 -0.63751682E+02
 -0.63751683E+02
 -0.63751683E+02
 -0.63751684E+02
 -0.63751683E+02
 -0.63751683E+02
 -0.63751684E+02
 -0.63751684E+02
 -0.63751684E+02
 -0.63751685E+02
 -0.63751685E+02
 -0.58773635E+02
 -0.58773635E+02
 -0.58773635E+02
 -0.58773634E+02
 -0.58773634E+02
 -0.58773634E+02
 -0.58773633E+02
 -0.58773633E+02
 -0.58773632E+02
 -0.58773631E+02
 -0.58773631E+02
 -0.58773631E+02
 -0.58773631E+02
 -0.58773631E+02
 -0.58773631E+02
 -0.58773630E+02
 -0.58773630E+02
 -0.58773630E+02
 -0.58773631E+02
 -0.58773631E+02
 -0.58773632E+02
 -0.58773632E+02
 -0.58773633E+02
 -0.58773633E+02
 -0.58773634E+02
 -0.58773634E+02
 -0.58773634E+02
 -0.58773634E+02
 -0.58773634E+02
 -0.58773634E+02
 -0.58773634E+02
 -0.58773633E+02
 -0.58773633E+02
 -0.58773634E+02
 -0.58773634E+02
 -0.58773634E+02
 -0.58773634E+02
 -0.58773634E+02
 -0.58773634E+02
 -0.58773634E+02
 -0.58773633E+02
 -0.58773633E+02
 -0.58773632E+02
 -0.58773632E+02
 -0.58773631E+02
 -0.58773631E+02
 -0.58773630E+02
 -0.58773630E+02
 -0.58773630E+02
 -0.58773631E+02
 -0.58773631E+02
 -0.58773631E+02
 -0.58773631E+02
 -0.58773631E+02
 -0.58773631E+02
 -0.58773632E+02
 -0.58773633E+02
 -0.58773633E+02
 -0.58773634E+02
 -0.58773634E+02
 -0.58773634E+02
 -0.58773635E+02
 -0.58773635E+02
 -0.58773635E+02
 -0.54168884E+02
 -0.54168885E+02
 -0.54168886E+02
 -0.54168886E+02
 -0.54168886E+02
 -0.54168886E+02
 -0.54168886E+02
 -0.54168885E+02
 -0.54168884E+02
 -0.54168883E+02
 -0.54168883E+02
 -0.54168883E+02
 -0.54168883E+02
 -0.54168883E+02
 -0.54168883E+02
 -0.54168883E+02
 -0.54168883E+02
 -0.54168883E+02
 -0.54168883E+02
 -0.54168883E+02
 -0.54168883E+02
 -0.54168884E+02
 -0.54168884E+02
 -0.54168885E+02
 -0.54168885E+02
 -0.54168885E+02
 -0.54168885E+02
 -0.54168885E+02
 -0.54168885E+02
 -0.54168886E+02
 -0.54168886E+02
 -0.54168887E+02
 -0.54168887E+02
 -0.54168886E+02
 -0.54168886E+02
 -0.54168885E+02
 -0.54168885E+02
 -0.54168885E+02
 -0.54168885E+02
 -0.54168885E+02
 -0.54168885E+02
 -0.54168884E+02
 -0.54168884E+02
 -0.54168883E+02
 -0.54168883E+02
 -0.54168883E+02
 -0.54168883E+02
 -0.54168883E+02
 -0.54168883E+02
 -0.54168883E+02
 -0.54168883E+02
 -0.54168883E+02
 -0.54168883E+02
 -0.54168883E+02
 -0.54168883E+02
 -0.54168884E+02
 -0.54168885E+02
 -0.54168886E+02
 -0.54168886E+02
 -0.54168886E+02
 -0.54168886E+02
 -0.54168886E+02
 -0.54168885E+02
 -0.54168884E+02
 -0.49901026E+02
 -0.49901025E+02
 -0.49901025E+02
 -0.49901024E+02
 -0.49901024E+02
 -0.49901024E+02
 -0.49901024E+02
 -0.49901025E+02
 -0.49901025E+02
 -0.49901026E+02
 -0.49901025E+02
 -0.49901024E+02
 -0.49901023E+02
 -0.49901022E+02
 -0.49901022E+02
 -0.49901022E+02
 -0.49901022E+02
 -0.49901023E+02
 -0.49901023E+02
 -0.49901023E+02
 -0.49901023E+02
 -0.49901023E+02
 -0.49901023E+02
 -0.49901023E+02
 -0.49901024E+02
 -0.49901024E+02
 -0.49901025E+02
 -0.49901026E+02
 -0.49901026E+02
 -0.49901026E+02
 -0.49901026E+02
 -0.49901026E+02
 -0.49901026E+02
 -0.49901026E+02
 -0.49901026E+02
 -0.49901026E+02
 -0.49901026E+02
 -0.49901025E+02
 -0.49901024E+02
 -0.49901024E+02
 -0.49901023E+02
 -0.49901023E+02
 -0.49901023E+02
 -0.49901023E+02
 -0.49901023E+02
 -0.49901023E+02
 -0.49901023E+02
 -0.49901022E+02
 -0.49901022E+02
 -0.49901022E+02
 -0.49901022E+02
 -0.49901023E+02
 -0.49901024E+02
 -0.49901025E+02
 -0.49901026E+02
 -0.49901025E+02
 -0.49901025E+02
 -0.49901024E+02
 -0.49901024E+02
 -0.49901024E+02
 -0.49901024E+02
 -0.49901025E+02
 -0.49901025E+02
 -0.49901026E+02
 -0.45937973E+02
 -0.45937973E+02
 -0.45937973E+02
 -0.45937973E+02
 -0.45937973E+02
 -0.45937973E+02
 -0.45937973E+02
 -0.45937973E+02
 -0.45937974E+02
 -0.45937974E+02
 -0.45937974E+02
 -0.45937974E+02
 -0.45937974E+02
 -0.45937974E+02
 -0.45937974E+02
 -0.45937973E+02
 -0.45937972E+02
 -0.45937971E+02
 -0.45937970E+02
 -0.45937970E+02
 -0.45937970E+02
 -0.45937970E+02
 -0.45937971E+02
 -0.45937971E+02
 -0.45937972E+02
 -0.45937972E+02
 -0.45937973E+02
 -0.45937974E+02
 -0.45937974E+02
 -0.45937975E+02
 -0.45937976E+02
 -0.45937976E+02
 -0.45937976E+02
 -0.45937976E+02
 -0.45937975E+02
 -0.45937974E+02
 -0.45937974E+02
 -0.45937973E+02
 -0.45937972E+02
 -0.45937972E+02
 -0.45937971E+02
 -0.45937971E+02
 -0.45937970E+02
 -0.45937970E+02
 -0.45937970E+02
 -0.45937970E+02
 -0.45937971E+02
 -0.45937972E+02
 -0.45937973E+02
 -0.45937974E+02
 -0.45937974E+02
 -0.45937974E+02
 -0.45937974E+02
 -0.45937974E+02
 -0.45937974E+02
 -0.45937974E+02
 -0.45937973E+02
 -0.45937973E+02
 -0.45937973E+02
 -0.45937973E+02
 -0.45937973E+02
 -0.45937973E+02
 -0.45937973E+02
 -0.45937973E+02
 -0.42251380E+02
 -0.42251380E+02
 -0.42251380E+02
 -0.42251380E+02
 -0.42251381E+02
 -0.42251381E+02
 -0.42251381E+02
 -0.42251381E+02
 -0.42251381E+02
 -0.42251382E+02
 -0.42251382E+02
 -0.42251382E+02
 -0.42251382E+02
 -0.42251382E+02
 -0.42251381E+02
 -0.42251380E+02
 -0.42251379E+02
 -0.42251378E+02
 -0.42251377E+02
 -0.42251377E+02
 -0.42251376E+02
 -0.42251376E+02
 -0.42251377E+02
 -0.42251378E+02
 -0.42251379E+02
 -0.42251380E+02
 -0.42251381E+02
 -0.42251382E+02
 -0.42251383E+02
 -0.42251384E+02
 -0.42251384E+02
 -0.42251385E+02
 -0.42251385E+02
 -0.42251384E+02
 -0.42251384E+02
 -0.42251383E+02
 -0.42251382E+02
 -0.42251381E+02
 -0.42251380E+02
 -0.42251379E+02
 -0.42251378E+02
 -0.42251377E+02
 -0.42251376E+02
 -0.42251376E+02
 -0.42251377E+02
 -0.42251377E+02
 -0.42251378E+02
 -0.42251379E+02
 -0.42251380E+02
 -0.42251381E+02
 -0.42251382E+02
 -0.42251382E+02
 -0.42251382E+02
 -0.42251382E+02
 -0.42251382E+02
 -0.42251381E+02
 -0.42251381E+02
 -0.42251381E+02
 -0.42251381E+02
 -0.42251381E+02
 -0.42251380E+02
 -0.42251380E+02
 -0.42251380E+02
 -0.42251380E+02
 -0.38816116E+02
 -0.38816116E+02
 -0.38816117E+02
 -0.38816118E+02
 -0.38816118E+02
 -0.38816118E+02
 -0.38816119E+02
 -0.38816119E+02
 -0.38816119E+02
 -0.38816119E+02
 -0.38816119E+02
 -0.38816119E+02
 -0.38816119E+02
 -0.38816120E+02
 -0.38816120E+02
 -0.38816119E+02
 -0.38816118E+02
 -0.38816117E+02
 -0.38816116E+02
 -0.38816115E+02
 -0.38816115E+02
 -0.38816115E+02
 -0.38816115E+02
 -0.38816115E+02
 -0.38816116E+02
 -0.38816116E+02
 -0.38816117E+02
 -0.38816118E+02
 -0.38816119E+02
 -0.38816119E+02
 -0.38816119E+02
 -0.38816119E+02
 -0.38816119E+02
 -0.38816119E+02
 -0.38816119E+02
 -0.38816119E+02
 -0.38816118E+02
 -0.38816117E+02
 -0.38816116E+02
 -0.38816116E+02
 -0.38816115E+02
 -0.38816115E+02
 -0.38816115E+02
 -0.38816115E+02
 -0.38816115E+02
 -0.38816116E+02
 -0.38816117E+02
 -0.38816118E+02
 -0.38816119E+02
 -0.38816120E+02
 -0.38816120E+02
 -0.38816119E+02
 -0.38816119E+02
 -0.38816119E+02
 -0.38816119E+02
 -0.38816119E+02
 -0.38816119E+02
 -0.38816119E+02
 -0.38816118E+02
 -0.38816118E+02
 -0.38816118E+02
 -0.38816117E+02
 -0.38816116E+02
 -0.38816116E+02
 -0.35609848E+02
 -0.35609848E+02
 -0.35609847E+02
 -0.35609846E+02
 -0.35609846E+02
 -0.35609846E+02
 -0.35609846E+02
 -0.35609847E+02
 -0.35609848E+02
 -0.35609849E+02
 -0.35609850E+02
 -0.35609850E+02
 -0.35609849E+02
 -0.35609849E+02
 -0.35609848E+02
 -0.35609848E+02
 -0.35609848E+02
 -0.35609847E+02
 -0.35609847E+02
 -0.35609846E+02
 -0.35609846E+02
 -0.35609845E+02
 -0.35609845E+02
 -0.35609845E+02
 -0.35609846E+02
 -0.35609846E+02
 -0.35609847E+02
 -0.35609847E+02
 -0.35609848E+02
 -0.35609849E+02
 -0.35609850E+02
 -0.35609851E+02
 -0.35609851E+02
 -0.35609850E+02
 -0.35609849E+02
 -0.35609848E+02
 -0.35609847E+02
 -0.35609847E+02
 -0.35609846E+02
 -0.35609846E+02
 -0.35609845E+02
 -0.35609845E+02
 -0.35609845E+02
 -0.35609846E+02
 -0.35609846E+02
 -0.35609847E+02
 -0.35609847E+02
 -0.35609848E+02
 -0.35609848E+02
 -0.35609848E+02
 -0.35609849E+02
 -0.35609849E+02
 -0.35609850E+02
 -0.35609850E+02
 -0.35609849E+02
 -0.35609848E+02
 -0.35609847E+02
 -0.35609846E+02
 -0.35609846E+02
 -0.35609846E+02
 -0.35609846E+02
 -0.35609847E+02
 -0.35609848E+02
 -0.35609848E+02
 -0.32612657E+02
 -0.32612658E+02
 -0.32612658E+02
 -0.32612659E+02
 -0.32612660E+02
 -0.32612661E+02
 -0.32612661E+02
 -0.32612661E+02
 -0.32612661E+02
 -0.32612661E+02
 -0.32612661E+02
 -0.32612661E+02
 -0.32612661E+02
 -0.32612661E+02
 -0.32612661E+02
 -0.32612661E+02
 -0.32612661E+02
 -0.32612661E+02
 -0.32612660E+02
 -0.32612659E+02
 -0.32612659E+02
 -0.32612659E+02
 -0.32612659E+02
 -0.32612658E+02
 -0.32612658E+02
 -0.32612658E+02
 -0.32612659E+02
 -0.32612660E+02
 -0.32612660E+02
 -0.32612660E+02
 -0.32612660E+02
 -0.32612660E+02
 -0.32612660E+02
 -0.32612660E+02
 -0.32612660E+02
 -0.32612660E+02
 -0.32612660E+02
 -0.32612659E+02
 -0.32612658E+02
 -0.32612658E+02
 -0.32612658E+02
 -0.32612659E+02
 -0.32612659E+02
 -0.32612659E+02
 -0.32612659E+02
 -0.32612660E+02
 -0.32612661E+02
 -0.32612661E+02
 -0.32612661E+02
 -0.32612661E+02
 -0.32612661E+02
 -0.32612661E+02
 -0.32612661E+02
 -0.32612661E+02
 -0.32612661E+02
 -0.32612661E+02
 -0.32612661E+02
 -0.32612661E+02
 -0.32612661E+02
 -0.32612660E+02
 -0.32612659E+02
 -0.32612658E+02
 -0.32612658E+02
 -0.32612657E+02
 -0.29806761E+02
 -0.29806761E+02
 -0.29806762E+02
 -0.29806762E+02
 -0.29806763E+02
 -0.29806763E+02
 -0.29806763E+02
 -0.29806763E+02
 -0.29806764E+02
 -0.29806764E+02
 -0.29806764E+02
 -0.29806764E+02
 -0.29806765E+02
 -0.29806765E+02
 -0.29806764E+02
 -0.29806764E+02
 -0.29806764E+02
 -0.29806763E+02
 -0.29806764E+02
 -0.29806764E+02
 -0.29806763E+02
 -0.29806763E+02
 -0.29806763E+02
 -0.29806762E+02
 -0.29806762E+02
 -0.29806762E+02
 -0.29806762E+02
 -0.29806762E+02
 -0.29806761E+02
 -0.29806762E+02
 -0.29806762E+02
 -0.29806763E+02
 -0.29806763E+02
 -0.29806762E+02
 -0.29806762E+02
 -0.29806762E+02
 -0.29806762E+02
 -0.29806762E+02
 -0.29806763E+02
 -0.29806763E+02
 -0.29806763E+02
 -0.29806763E+02
 -0.29806763E+02
 -0.29806763E+02
 -0.29806764E+02
 -0.29806764E+02
 -0.29806764E+02
 -0.29806764E+02
 -0.29806764E+02
 -0.29806764E+02
 -0.29806765E+02
 -0.29806765E+02
 -0.29806764E+02
 -0.29806764E+02
 -0.29806764E+02
 -0.29806764E+02
 -0.29806763E+02
 -0.29806763E+02
 -0.29806763E+02
 -0.29806763E+02
 -0.29806762E+02
 -0.29806762E+02
 -0.29806761E+02
 -0.29806761E+02
 -0.27176217E+02
 -0.27176217E+02
 -0.27176217E+02
 -0.27176217E+02
 -0.27176217E+02
 -0.27176217E+02
 -0.27176218E+02
 -0.27176219E+02
 -0.27176219E+02
 -0.27176220E+02
 -0.27176220E+02
 -0.27176220E+02
 -0.27176219E+02
 -0.27176219E+02
 -0.27176218E+02
 -0.27176218E+02
 -0.27176218E+02
 -0.27176218E+02
 -0.27176218E+02
 -0.27176217E+02
 -0.27176217E+02
 -0.27176217E+02
 -0.27176217E+02
 -0.27176217E+02
 -0.27176217E+02
 -0.27176217E+02
 -0.27176217E+02
 -0.27176218E+02
 -0.27176218E+02
 -0.27176219E+02
 -0.27176218E+02
 -0.27176218E+02
 -0.27176218E+02
 -0.27176218E+02
 -0.27176218E+02
 -0.27176218E+02
 -0.27176217E+02
 -0.27176217E+02
 -0.27176216E+02
 -0.27176217E+02
 -0.27176217E+02
 -0.27176217E+02
 -0.27176217E+02
 -0.27176217E+02
 -0.27176217E+02
 -0.27176218E+02
 -0.27176218E+02
 -0.27176218E+02
 -0.27176218E+02
 -0.27176218E+02
 -0.27176219E+02
 -0.27176219E+02
 -0.27176220E+02
 -0.27176220E+02
 -0.27176220E+02
 -0.27176219E+02
 -0.27176219E+02
 -0.27176218E+02
 -0.27176217E+02
 -0.27176217E+02
 -0.27176217E+02
 -0.27176217E+02
 -0.27176217E+02
 -0.27176217E+02
 -0.24706709E+02
 -0.24706709E+02
 -0.24706709E+02
 -0.24706710E+02
 -0.24706711E+02
 -0.24706712E+02
 -0.24706713E+02
 -0.24706713E+02
 -0.24706714E+02
 -0.24706714E+02
 -0.24706714E+02
 -0.24706714E+02
 -0.24706713E+02
 -0.24706713E+02
 -0.24706713E+02
 -0.24706713E+02
 -0.24706712E+02
 -0.24706712E+02
 -0.24706711E+02
 -0.24706711E+02
 -0.24706711E+02
 -0.24706711E+02
 -0.24706711E+02
 -0.24706711E+02
 -0.24706711E+02
 -0.24706711E+02
 -0.24706711E+02
 -0.24706711E+02
 -0.24706710E+02
 -0.24706710E+02
 -0.24706710E+02
 -0.24706711E+02
 -0.24706711E+02
 -0.24706711E+02
 -0.24706710E+02
 -0.24706711E+02
 -0.24706711E+02
 -0.24706712E+02
 -0.24706712E+02
 -0.24706711E+02
 -0.24706711E+02
 -0.24706711E+02
 -0.24706711E+02
 -0.24706711E+02
 -0.24706711E+02
 -0.24706712E+02
 -0.24706712E+02
 -0.24706712E+02
 -0.24706713E+02
 -0.24706713E+02
 -0.24706713E+02
 -0.24706713E+02
 -0.24706714E+02
 -0.24706714E+02
 -0.24706714E+02
 -0.24706714E+02
 -0.24706713E+02
 -0.24706713E+02
 -0.24706712E+02
 -0.24706711E+02
 -0.24706710E+02
 -0.24706709E+02
 -0.24706709E+02
 -0.24706709E+02
 -0.22385360E+02
 -0.22385360E+02
 -0.22385360E+02
 -0.22385361E+02
 -0.22385361E+02
 -0.22385362E+02
 -0.22385362E+02
 -0.22385363E+02
 -0.22385364E+02
 -0.22385365E+02
 -0.22385366E+02
 -0.22385366E+02
 -0.22385366E+02
 -0.22385365E+02
 -0.22385365E+02
 -0.22385364E+02
 -0.22385364E+02
 -0.22385363E+02
 -0.22385362E+02