# vtk DataFile Version 2.0
MEF - Elasticidade Plana 2D
ASCII
DATASET UNSTRUCTURED_GRID
POINTS       15 float
  0.10000000E+01  0.00000000E+00  0.00000000E+00
  0.92387953E+00  0.38268343E+00  0.00000000E+00
  0.70710678E+00  0.70710678E+00  0.00000000E+00
  0.38268343E+00  0.92387953E+00  0.00000000E+00
  0.00000000E+00  0.10000000E+01  0.00000000E+00
  0.15000000E+01  0.00000000E+00  0.00000000E+00
  0.13858193E+01  0.57402515E+00  0.00000000E+00
  0.10606602E+01  0.10606602E+01  0.00000000E+00
  0.57402515E+00  0.13858193E+01  0.00000000E+00
  0.00000000E+00  0.15000000E+01  0.00000000E+00
  0.20000000E+01  0.00000000E+00  0.00000000E+00
  0.18477591E+01  0.76536686E+00  0.00000000E+00
  0.14142136E+01  0.14142136E+01  0.00000000E+00
  0.76536686E+00  0.18477591E+01  0.00000000E+00
  0.00000000E+00  0.20000000E+01  0.00000000E+00
CELLS        8      40
       4       0       5       6       1
       4       1       6       7       2
       4       2       7       8       3
       4       3       8       9       4
       4       5      10      11       6
       4       6      11      12       7
       4       7      12      13       8
       4       8      13      14       9
CELL_TYPES        8
 9
 9
 9
 9
 9
 9
 9
 9
CELL_DATA        8
SCALARS sigma_r float 1
LOOKUP_TABLE default
 -0.51015263E+02
 -0.51015263E+02
 -0.51015263E+02
 -0.51015263E+02
 -0.96134165E+01
 -0.96134165E+01
 -0.96134165E+01
 -0.96134165E+01
SCALARS sigma_theta float 1
LOOKUP_TABLE default
  0.11849222E+03
  0.11849222E+03
  0.11849222E+03
  0.11849222E+03
  0.75701301E+02
  0.75701301E+02
  0.75701301E+02
  0.75701301E+02
SCALARS tau_rtheta float 1
LOOKUP_TABLE default
 -0.16627411E-09
  0.41843862E-10
 -0.41854520E-10
  0.16616752E-09
 -0.31669956E-09
 -0.12446222E-09
  0.12448709E-09
  0.31668179E-09
SCALARS sigma_z float 1
LOOKUP_TABLE default
  0.00000000E+00
  0.00000000E+00
  0.00000000E+00
  0.00000000E+00
  0.00000000E+00
  0.00000000E+00
  0.00000000E+00
  0.00000000E+00
POINT_DATA       15
VECTORS Deslocamentos float
  0.94443369E-06  0.00000000E+00  0.00000000E+00
  0.87254295E-06  0.36141913E-06  0.00000000E+00
  0.66781546E-06  0.66781546E-06  0.00000000E+00
  0.36141913E-06  0.87254295E-06  0.00000000E+00
  0.00000000E+00  0.94443369E-06  0.00000000E+00
  0.72802636E-06  0.00000000E+00  0.00000000E+00
  0.67260865E-06  0.27860363E-06  0.00000000E+00
  0.51479238E-06  0.51479238E-06  0.00000000E+00
  0.27860363E-06  0.67260865E-06  0.00000000E+00
  0.00000000E+00  0.72802636E-06  0.00000000E+00
  0.64721684E-06  0.00000000E+00  0.00000000E+00
  0.59795040E-06  0.24767916E-06  0.00000000E+00
  0.45765142E-06  0.45765142E-06  0.00000000E+00
  0.24767916E-06  0.59795040E-06  0.00000000E+00
  0.00000000E+00  0.64721684E-06  0.00000000E+00
SCALARS u_r float 1
LOOKUP_TABLE default
  0.94443369E-06
  0.94443369E-06
  0.94443369E-06
  0.94443369E-06
  0.94443369E-06
  0.72802636E-06
  0.72802636E-06
  0.72802636E-06
  0.72802636E-06
  0.72802636E-06
  0.64721684E-06
  0.64721684E-06
  0.64721684E-06
  0.64721684E-06
  0.64721684E-06
SCALARS u_theta float 1
LOOKUP_TABLE default
  0.00000000E+00
 -0.36360425E-16
  0.84703295E-21
  0.36361377E-16
  0.57827975E-22
  0.00000000E+00
 -0.33025815E-17
  0.21175824E-21
  0.33028991E-17
  0.44577285E-22
  0.00000000E+00
  0.13476347E-16
 -0.26469780E-21
 -0.13476294E-16
  0.39629293E-22
