# vtk DataFile Version 2.0
MEF - Elasticidade Plana 2D
ASCII
DATASET UNSTRUCTURED_GRID
POINTS      153 float
  0.10000000E+01  0.00000000E+00  0.00000000E+00
  0.99518473E+00  0.98017140E-01  0.00000000E+00
  0.98078528E+00  0.19509032E+00  0.00000000E+00
  0.95694034E+00  0.29028468E+00  0.00000000E+00
  0.92387953E+00  0.38268343E+00  0.00000000E+00
  0.88192126E+00  0.47139674E+00  0.00000000E+00
  0.83146961E+00  0.55557023E+00  0.00000000E+00
  0.77301045E+00  0.63439328E+00  0.00000000E+00
  0.70710678E+00  0.70710678E+00  0.00000000E+00
  0.63439328E+00  0.77301045E+00  0.00000000E+00
  0.55557023E+00  0.83146961E+00  0.00000000E+00
  0.47139674E+00  0.88192126E+00  0.00000000E+00
  0.38268343E+00  0.92387953E+00  0.00000000E+00
  0.29028468E+00  0.95694034E+00  0.00000000E+00
  0.19509032E+00  0.98078528E+00  0.00000000E+00
  0.98017140E-01  0.99518473E+00  0.00000000E+00
  0.00000000E+00  0.10000000E+01  0.00000000E+00
  0.11250000E+01  0.00000000E+00  0.00000000E+00
  0.11195828E+01  0.11026928E+00  0.00000000E+00
  0.11033834E+01  0.21947661E+00  0.00000000E+00
  0.10765579E+01  0.32657026E+00  0.00000000E+00
  0.10393645E+01  0.43051886E+00  0.00000000E+00
  0.99216142E+00  0.53032133E+00  0.00000000E+00
  0.93540331E+00  0.62501651E+00  0.00000000E+00
  0.86963676E+00  0.71369244E+00  0.00000000E+00
  0.79549513E+00  0.79549513E+00  0.00000000E+00
  0.71369244E+00  0.86963676E+00  0.00000000E+00
  0.62501651E+00  0.93540331E+00  0.00000000E+00
  0.53032133E+00  0.99216142E+00  0.00000000E+00
  0.43051886E+00  0.10393645E+01  0.00000000E+00
  0.32657026E+00  0.10765579E+01  0.00000000E+00
  0.21947661E+00  0.11033834E+01  0.00000000E+00
  0.11026928E+00  0.11195828E+01  0.00000000E+00
  0.00000000E+00  0.11250000E+01  0.00000000E+00
  0.12500000E+01  0.00000000E+00  0.00000000E+00
  0.12439809E+01  0.12252143E+00  0.00000000E+00
  0.12259816E+01  0.24386290E+00  0.00000000E+00
  0.11961754E+01  0.36285585E+00  0.00000000E+00
  0.11548494E+01  0.47835429E+00  0.00000000E+00
  0.11024016E+01  0.58924592E+00  0.00000000E+00
  0.10393370E+01  0.69446279E+00  0.00000000E+00
  0.96626307E+00  0.79299161E+00  0.00000000E+00
  0.88388348E+00  0.88388348E+00  0.00000000E+00
  0.79299161E+00  0.96626307E+00  0.00000000E+00
  0.69446279E+00  0.10393370E+01  0.00000000E+00
  0.58924592E+00  0.11024016E+01  0.00000000E+00
  0.47835429E+00  0.11548494E+01  0.00000000E+00
  0.36285585E+00  0.11961754E+01  0.00000000E+00
  0.24386290E+00  0.12259816E+01  0.00000000E+00
  0.12252143E+00  0.12439809E+01  0.00000000E+00
  0.00000000E+00  0.12500000E+01  0.00000000E+00
  0.13750000E+01  0.00000000E+00  0.00000000E+00
  0.13683790E+01  0.13477357E+00  0.00000000E+00
  0.13485798E+01  0.26824919E+00  0.00000000E+00
  0.13157930E+01  0.39914143E+00  0.00000000E+00
  0.12703344E+01  0.52618972E+00  0.00000000E+00
  0.12126417E+01  0.64817051E+00  0.00000000E+00
  0.11432707E+01  0.76390907E+00  0.00000000E+00
  0.10628894E+01  0.87229077E+00  0.00000000E+00
  0.97227182E+00  0.97227182E+00  0.00000000E+00
  0.87229077E+00  0.10628894E+01  0.00000000E+00
  0.76390907E+00  0.11432707E+01  0.00000000E+00
  0.64817051E+00  0.12126417E+01  0.00000000E+00
  0.52618972E+00  0.12703344E+01  0.00000000E+00
  0.39914143E+00  0.13157930E+01  0.00000000E+00
  0.26824919E+00  0.13485798E+01  0.00000000E+00
  0.13477357E+00  0.13683790E+01  0.00000000E+00
  0.00000000E+00  0.13750000E+01  0.00000000E+00
  0.15000000E+01  0.00000000E+00  0.00000000E+00
  0.14927771E+01  0.14702571E+00  0.00000000E+00
  0.14711779E+01  0.29263548E+00  0.00000000E+00
  0.14354105E+01  0.43542702E+00  0.00000000E+00
  0.13858193E+01  0.57402515E+00  0.00000000E+00
  0.13228819E+01  0.70709511E+00  0.00000000E+00
  0.12472044E+01  0.83335535E+00  0.00000000E+00
  0.11595157E+01  0.95158993E+00  0.00000000E+00
  0.10606602E+01  0.10606602E+01  0.00000000E+00
  0.95158993E+00  0.11595157E+01  0.00000000E+00
  0.83335535E+00  0.12472044E+01  0.00000000E+00
  0.70709511E+00  0.13228819E+01  0.00000000E+00
  0.57402515E+00  0.13858193E+01  0.00000000E+00
  0.43542702E+00  0.14354105E+01  0.00000000E+00
  0.29263548E+00  0.14711779E+01  0.00000000E+00
  0.14702571E+00  0.14927771E+01  0.00000000E+00
  0.00000000E+00  0.15000000E+01  0.00000000E+00
  0.16250000E+01  0.00000000E+00  0.00000000E+00
  0.16171752E+01  0.15927785E+00  0.00000000E+00
  0.15937761E+01  0.31702177E+00  0.00000000E+00
  0.15550280E+01  0.47171260E+00  0.00000000E+00
  0.15013042E+01  0.62186058E+00  0.00000000E+00
  0.14331221E+01  0.76601970E+00  0.00000000E+00
  0.13511381E+01  0.90280163E+00  0.00000000E+00
  0.12561420E+01  0.10308891E+01  0.00000000E+00
  0.11490485E+01  0.11490485E+01  0.00000000E+00
  0.10308891E+01  0.12561420E+01  0.00000000E+00
  0.90280163E+00  0.13511381E+01  0.00000000E+00
  0.76601970E+00  0.14331221E+01  0.00000000E+00
  0.62186058E+00  0.15013042E+01  0.00000000E+00
  0.47171260E+00  0.15550280E+01  0.00000000E+00
  0.31702177E+00  0.15937761E+01  0.00000000E+00
  0.15927785E+00  0.16171752E+01  0.00000000E+00
  0.00000000E+00  0.16250000E+01  0.00000000E+00
  0.17500000E+01  0.00000000E+00  0.00000000E+00
  0.17415733E+01  0.17153000E+00  0.00000000E+00
  0.17163742E+01  0.34140806E+00  0.00000000E+00
  0.16746456E+01  0.50799819E+00  0.00000000E+00
  0.16167892E+01  0.66969601E+00  0.00000000E+00
  0.15433622E+01  0.82494429E+00  0.00000000E+00
  0.14550718E+01  0.97224791E+00  0.00000000E+00
  0.13527683E+01  0.11101882E+01  0.00000000E+00
  0.12374369E+01  0.12374369E+01  0.00000000E+00
  0.11101882E+01  0.13527683E+01  0.00000000E+00
  0.97224791E+00  0.14550718E+01  0.00000000E+00
  0.82494429E+00  0.15433622E+01  0.00000000E+00
  0.66969601E+00  0.16167892E+01  0.00000000E+00
  0.50799819E+00  0.16746456E+01  0.00000000E+00
  0.34140806E+00  0.17163742E+01  0.00000000E+00
  0.17153000E+00  0.17415733E+01  0.00000000E+00
  0.00000000E+00  0.17500000E+01  0.00000000E+00
  0.18750000E+01  0.00000000E+00  0.00000000E+00
  0.18659714E+01  0.18378214E+00  0.00000000E+00
  0.18389724E+01  0.36579435E+00  0.00000000E+00
  0.17942631E+01  0.54428377E+00  0.00000000E+00
  0.17322741E+01  0.71753144E+00  0.00000000E+00
  0.16536024E+01  0.88386888E+00  0.00000000E+00
  0.15590055E+01  0.10416942E+01  0.00000000E+00
  0.14493946E+01  0.11894874E+01  0.00000000E+00
  0.13258252E+01  0.13258252E+01  0.00000000E+00
  0.11894874E+01  0.14493946E+01  0.00000000E+00
  0.10416942E+01  0.15590055E+01  0.00000000E+00
  0.88386888E+00  0.16536024E+01  0.00000000E+00
  0.71753144E+00  0.17322741E+01  0.00000000E+00
  0.54428377E+00  0.17942631E+01  0.00000000E+00
  0.36579435E+00  0.18389724E+01  0.00000000E+00
  0.18378214E+00  0.18659714E+01  0.00000000E+00
  0.00000000E+00  0.18750000E+01  0.00000000E+00
  0.20000000E+01  0.00000000E+00  0.00000000E+00
  0.19903695E+01  0.19603428E+00  0.00000000E+00
  0.19615706E+01  0.39018064E+00  0.00000000E+00
  0.19138807E+01  0.58056935E+00  0.00000000E+00
  0.18477591E+01  0.76536686E+00  0.00000000E+00
  0.17638425E+01  0.94279347E+00  0.00000000E+00
  0.16629392E+01  0.11111405E+01  0.00000000E+00
  0.15460209E+01  0.12687866E+01  0.00000000E+00
  0.14142136E+01  0.14142136E+01  0.00000000E+00
  0.12687866E+01  0.15460209E+01  0.00000000E+00
  0.11111405E+01  0.16629392E+01  0.00000000E+00
  0.94279347E+00  0.17638425E+01  0.00000000E+00
  0.76536686E+00  0.18477591E+01  0.00000000E+00
  0.58056935E+00  0.19138807E+01  0.00000000E+00
  0.39018064E+00  0.19615706E+01  0.00000000E+00
  0.19603428E+00  0.19903695E+01  0.00000000E+00
  0.00000000E+00  0.20000000E+01  0.00000000E+00
CELLS      128     640
       4       0      17      18       1
       4       1      18      19       2
       4       2      19      20       3
       4       3      20      21       4
       4       4      21      22       5
       4       5      22      23       6
       4       6      23      24       7
       4       7      24      25       8
       4       8      25      26       9
       4       9      26      27      10
       4      10      27      28      11
       4      11      28      29      12
       4      12      29      30      13
       4      13      30      31      14
       4      14      31      32      15
       4      15      32      33      16
       4      17      34      35      18
       4      18      35      36      19
       4      19      36      37      20
       4      20      37      38      21
       4      21      38      39      22
       4      22      39      40      23
       4      23      40      41      24
       4      24      41      42      25
       4      25      42      43      26
       4      26      43      44      27
       4      27      44      45      28
       4      28      45      46      29
       4      29      46      47      30
       4      30      47      48      31
       4      31      48      49      32
       4      32      49      50      33
       4      34      51      52      35
       4      35      52      53      36
       4      36      53      54      37
       4      37      54      55      38
       4      38      55      56      39
       4      39      56      57      40
       4      40      57      58      41
       4      41      58      59      42
       4      42      59      60      43
       4      43      60      61      44
       4      44      61      62      45
       4      45      62      63      46
       4      46      63      64      47
       4      47      64      65      48
       4      48      65      66      49
       4      49      66      67      50
       4      51      68      69      52
       4      52      69      70      53
       4      53      70      71      54
       4      54      71      72      55
       4      55      72      73      56
       4      56      73      74      57
       4      57      74      75      58
       4      58      75      76      59
       4      59      76      77      60
       4      60      77      78      61
       4      61      78      79      62
       4      62      79      80      63
       4      63      80      81      64
       4      64      81      82      65
       4      65      82      83      66
       4      66      83      84      67
       4      68      85      86      69
       4      69      86      87      70
       4      70      87      88      71
       4      71      88      89      72
       4      72      89      90      73
       4      73      90      91      74
       4      74      91      92      75
       4      75      92      93      76
       4      76      93      94      77
       4      77      94      95      78
       4      78      95      96      79
       4      79      96      97      80
       4      80      97      98      81
       4      81      98      99      82
       4      82      99     100      83
       4      83     100     101      84
       4      85     102     103      86
       4      86     103     104      87
       4      87     104     105      88
       4      88     105     106      89
       4      89     106     107      90
       4      90     107     108      91
       4      91     108     109      92
       4      92     109     110      93
       4      93     110     111      94
       4      94     111     112      95
       4      95     112     113      96
       4      96     113     114      97
       4      97     114     115      98
       4      98     115     116      99
       4      99     116     117     100
       4     100     117     118     101
       4     102     119     120     103
       4     103     120     121     104
       4     104     121     122     105
       4     105     122     123     106
       4     106     123     124     107
       4     107     124     125     108
       4     108     125     126     109
       4     109     126     127     110
       4     110     127     128     111
       4     111     128     129     112
       4     112     129     130     113
       4     113     130     131     114
       4     114     131     132     115
       4     115     132     133     116
       4     116     133     134     117
       4     117     134     135     118
       4     119     136     137     120
       4     120     137     138     121
       4     121     138     139     122
       4     122     139     140     123
       4     123     140     141     124
       4     124     141     142     125
       4     125     142     143     126
       4     126     143     144     127
       4     127     144     145     128
       4     128     145     146     129
       4     129     146     147     130
       4     130     147     148     131
       4     131     148     149     132
       4     132     149     150     133
       4     133     150     151     134
       4     134     151     152     135
CELL_TYPES      128
 9
 9
 9
 9
 9
 9
 9
 9
 9
 9
 9
 9
 9
 9
 9
 9
 9
 9
 9
 9
 9
 9
 9
 9
 9
 9
 9
 9
 9
 9
 9
 9
 9
 9
 9
 9
 9
 9
 9
 9
 9
 9
 9
 9
 9
 9
 9
 9
 9
 9
 9
 9
 9
 9
 9
 9
 9
 9
 9
 9
 9
 9
 9
 9
 9
 9
 9
 9
 9
 9
 9
 9
 9
 9
 9
 9
 9
 9
 9
 9
 9
 9
 9
 9
 9
 9
 9
 9
 9
 9
 9
 9
 9
 9
 9
 9
 9
 9
 9
 9
 9
 9
 9
 9
 9
 9
 9
 9
 9
 9
 9
 9
 9
 9
 9
 9
 9
 9
 9
 9
 9
 9
 9
 9
 9
 9
 9
 9
CELL_DATA      128
SCALARS sigma_r float 1
LOOKUP_TABLE default
 -0.84690884E+02
 -0.84690884E+02
 -0.84690882E+02
 -0.84690884E+02
 -0.84690884E+02
 -0.84690882E+02
 -0.84690883E+02
 -0.84690885E+02
 -0.84690885E+02
 -0.84690883E+02
 -0.84690882E+02
 -0.84690884E+02
 -0.84690884E+02
 -0.84690882E+02
 -0.84690884E+02
 -0.84690884E+02
 -0.61135602E+02
 -0.61135603E+02
 -0.61135601E+02
 -0.61135600E+02
 -0.61135599E+02
 -0.61135600E+02
 -0.61135602E+02
 -0.61135603E+02
 -0.61135603E+02
 -0.61135602E+02
 -0.61135600E+02
 -0.61135599E+02
 -0.61135600E+02
 -0.61135601E+02
 -0.61135603E+02
 -0.61135602E+02
 -0.43991496E+02
 -0.43991496E+02
 -0.43991495E+02
 -0.43991494E+02
 -0.43991494E+02
 -0.43991495E+02
 -0.43991496E+02
 -0.43991496E+02
 -0.43991496E+02
 -0.43991496E+02
 -0.43991495E+02
 -0.43991494E+02
 -0.43991494E+02
 -0.43991495E+02
 -0.43991496E+02
 -0.43991496E+02
 -0.31126207E+02
 -0.31126207E+02
 -0.31126209E+02
 -0.31126210E+02
 -0.31126209E+02
 -0.31126209E+02
 -0.31126209E+02
 -0.31126208E+02
 -0.31126208E+02
 -0.31126209E+02
 -0.31126209E+02
 -0.31126209E+02
 -0.31126210E+02
 -0.31126209E+02
 -0.31126207E+02
 -0.31126207E+02
 -0.21225616E+02
 -0.21225619E+02
 -0.21225620E+02
 -0.21225620E+02
 -0.21225620E+02
 -0.21225619E+02
 -0.21225618E+02
 -0.21225618E+02
 -0.21225618E+02
 -0.21225618E+02
 -0.21225619E+02
 -0.21225620E+02
 -0.21225620E+02
 -0.21225621E+02
 -0.21225619E+02
 -0.21225616E+02
 -0.13444005E+02
 -0.13444007E+02
 -0.13444008E+02
 -0.13444008E+02
 -0.13444008E+02
 -0.13444007E+02
 -0.13444006E+02
 -0.13444005E+02
 -0.13444005E+02
 -0.13444006E+02
 -0.13444007E+02
 -0.13444008E+02
 -0.13444008E+02
 -0.13444007E+02
 -0.13444006E+02
 -0.13444005E+02
 -0.72170808E+01
 -0.72170827E+01
 -0.72170826E+01
 -0.72170814E+01
 -0.72170814E+01
 -0.72170815E+01
 -0.72170813E+01
 -0.72170810E+01
 -0.72170809E+01
 -0.72170809E+01
 -0.72170813E+01
 -0.72170815E+01
 -0.72170818E+01
 -0.72170831E+01
 -0.72170832E+01
 -0.72170814E+01
 -0.21566325E+01
 -0.21566322E+01
 -0.21566339E+01
 -0.21566336E+01
 -0.21566319E+01
 -0.21566329E+01
 -0.21566333E+01
 -0.21566321E+01
 -0.21566323E+01
 -0.21566337E+01
 -0.21566332E+01
 -0.21566318E+01
 -0.21566332E+01
 -0.21566333E+01
 -0.21566316E+01
 -0.21566320E+01
SCALARS sigma_theta float 1
LOOKUP_TABLE default
  0.15152859E+03
  0.15152859E+03
  0.15152859E+03
  0.15152859E+03
  0.15152859E+03
  0.15152859E+03
  0.15152859E+03
  0.15152859E+03
  0.15152859E+03
  0.15152859E+03
  0.15152859E+03
  0.15152859E+03
  0.15152859E+03
  0.15152859E+03
  0.15152859E+03
  0.15152859E+03
  0.12788350E+03
  0.12788350E+03
  0.12788350E+03
  0.12788350E+03
  0.12788350E+03
  0.12788350E+03
  0.12788350E+03
  0.12788350E+03
  0.12788350E+03
  0.12788350E+03
  0.12788350E+03
  0.12788350E+03
  0.12788350E+03
  0.12788350E+03
  0.12788350E+03
  0.12788350E+03
  0.11068643E+03
  0.11068643E+03
  0.11068643E+03
  0.11068642E+03
  0.11068642E+03
  0.11068643E+03
  0.11068643E+03
  0.11068643E+03
  0.11068643E+03
  0.11068643E+03
  0.11068643E+03
  0.11068642E+03
  0.11068642E+03
  0.11068643E+03
  0.11068643E+03
  0.11068643E+03
  0.97788280E+02
  0.97788280E+02
  0.97788279E+02
  0.97788278E+02
  0.97788278E+02
  0.97788278E+02
  0.97788278E+02
  0.97788281E+02
  0.97788281E+02
  0.97788278E+02
  0.97788278E+02
  0.97788278E+02
  0.97788278E+02
  0.97788279E+02
  0.97788280E+02
  0.97788280E+02
  0.87866436E+02
  0.87866435E+02
  0.87866435E+02
  0.87866435E+02
  0.87866434E+02
  0.87866434E+02
  0.87866434E+02
  0.87866437E+02
  0.87866437E+02
  0.87866435E+02
  0.87866434E+02
  0.87866434E+02
  0.87866435E+02
  0.87866435E+02
  0.87866435E+02
  0.87866436E+02
  0.80070587E+02
  0.80070586E+02
  0.80070586E+02
  0.80070586E+02
  0.80070585E+02
  0.80070585E+02
  0.80070586E+02
  0.80070587E+02
  0.80070587E+02
  0.80070586E+02
  0.80070585E+02
  0.80070585E+02
  0.80070586E+02
  0.80070587E+02
  0.80070586E+02
  0.80070588E+02
  0.73833838E+02
  0.73833836E+02
  0.73833836E+02
  0.73833836E+02
  0.73833835E+02
  0.73833835E+02
  0.73833836E+02
  0.73833839E+02
  0.73833839E+02
  0.73833837E+02
  0.73833835E+02
  0.73833835E+02
  0.73833836E+02
  0.73833836E+02
  0.73833836E+02
  0.73833838E+02
  0.68766433E+02
  0.68766433E+02
  0.68766430E+02
  0.68766430E+02
  0.68766431E+02
  0.68766431E+02
  0.68766432E+02
  0.68766434E+02
  0.68766434E+02
  0.68766432E+02
  0.68766431E+02
  0.68766431E+02
  0.68766430E+02
  0.68766430E+02
  0.68766433E+02
  0.68766433E+02
SCALARS tau_rtheta float 1
LOOKUP_TABLE default
  0.45504569E-07
  0.34694055E-06
  0.35212952E-06
  0.37124197E-06
  0.68573346E-06
  0.67477663E-06
  0.39239630E-06
  0.12026455E-06
 -0.11928346E-06
 -0.39407712E-06
 -0.67305912E-06
 -0.68842896E-06
 -0.37071499E-06
 -0.35364245E-06
 -0.34706081E-06
 -0.45775156E-07
  0.55746098E-06
  0.16612861E-05
  0.13347834E-05
  0.20383550E-06
 -0.20792150E-06
 -0.98268663E-06
 -0.15856042E-05
 -0.76364089E-06
  0.76299489E-06
  0.15842591E-05
  0.98541853E-06
  0.20815060E-06
 -0.20066206E-06
 -0.13345299E-05
 -0.16599727E-05
 -0.55780637E-06
 -0.43005060E-06
 -0.49749339E-06
 -0.28604105E-06
 -0.45449153E-06
 -0.26405900E-06
 -0.22279355E-06
 -0.40777296E-06
 -0.21424181E-06
  0.21738887E-06
  0.40769035E-06
  0.22060459E-06
  0.25923004E-06
  0.45167328E-06
  0.28377427E-06
  0.49745253E-06
  0.42965513E-06
 -0.14370250E-06
 -0.22379739E-06
 -0.14055825E-06
  0.10976817E-06
  0.30286163E-06
 -0.79774988E-07
 -0.35515728E-06
 -0.15557255E-06
  0.14910254E-06
  0.35464815E-06
  0.86035591E-07
 -0.29508338E-06
 -0.10449664E-06
  0.14148762E-06
  0.22304090E-06
  0.14289650E-06
 -0.56766685E-07
 -0.35472419E-06
 -0.36489389E-08
  0.10311064E-05
  0.73199263E-06
 -0.33697897E-06
 -0.37563078E-06
 -0.31444872E-07
  0.42854253E-07
  0.37525634E-06
  0.32529573E-06
 -0.74474472E-06
 -0.10363081E-05
  0.59608745E-08
  0.35951386E-06
  0.58886524E-07
 -0.26743093E-06
 -0.29332331E-06
  0.38614174E-06
  0.79840456E-06
  0.37862015E-06
 -0.25911137E-06
 -0.44600475E-06
 -0.19700708E-06
  0.18115641E-06
  0.44907414E-06
  0.27813936E-06
 -0.36230261E-06
 -0.79709012E-06
 -0.39664004E-06
  0.28165949E-06
  0.26264878E-06
 -0.76159882E-06
 -0.93202580E-06
  0.13140179E-06
  0.41955618E-06
  0.30736789E-07
 -0.98199466E-06
 -0.17753289E-05
 -0.88650368E-06
  0.90220631E-06
  0.17669682E-05
  0.95729281E-06
 -0.44784564E-07
 -0.40990535E-06
 -0.10778896E-06
  0.95293874E-06
  0.76951098E-06
 -0.68268047E-06
 -0.70320237E-06
  0.29893814E-06
  0.52468433E-07
 -0.10507703E-05
 -0.70197248E-06
  0.40724123E-06
  0.33718417E-06
 -0.33788725E-06
 -0.39184478E-06
  0.71975869E-06
  0.10457515E-05
 -0.83821348E-07
 -0.33833137E-06
  0.67436172E-06
  0.67256804E-06
SCALARS sigma_z float 1
LOOKUP_TABLE default
  0.00000000E+00
  0.00000000E+00
  0.00000000E+00
  0.00000000E+00
  0.00000000E+00
  0.00000000E+00
  0.00000000E+00
  0.00000000E+00
  0.00000000E+00
  0.00000000E+00
  0.00000000E+00
  0.00000000E+00
  0.00000000E+00
  0.00000000E+00
  0.00000000E+00
  0.00000000E+00
  0.00000000E+00
  0.00000000E+00
  0.00000000E+00
  0.00000000E+00
  0.00000000E+00
  0.00000000E+00
  0.00000000E+00
  0.00000000E+00
  0.00000000E+00
  0.00000000E+00
  0.00000000E+00
  0.00000000E+00
  0.00000000E+00
  0.00000000E+00
  0.00000000E+00
  0.00000000E+00
  0.00000000E+00
  0.00000000E+00
  0.00000000E+00
  0.00000000E+00
  0.00000000E+00
  0.00000000E+00
  0.00000000E+00
  0.00000000E+00
  0.00000000E+00
  0.00000000E+00
  0.00000000E+00
  0.00000000E+00
  0.00000000E+00
  0.00000000E+00
  0.00000000E+00
  0.00000000E+00
  0.00000000E+00
  0.00000000E+00
  0.00000000E+00
  0.00000000E+00
  0.00000000E+00
  0.00000000E+00
  0.00000000E+00
  0.00000000E+00
  0.00000000E+00
  0.00000000E+00
  0.00000000E+00
  0.00000000E+00
  0.00000000E+00
  0.00000000E+00
  0.00000000E+00
  0.00000000E+00
  0.00000000E+00
  0.00000000E+00
  0.00000000E+00
  0.00000000E+00
  0.00000000E+00
  0.00000000E+00
  0.00000000E+00
  0.00000000E+00
  0.00000000E+00
  0.00000000E+00
  0.00000000E+00
  0.00000000E+00
  0.00000000E+00
  0.00000000E+00
  0.00000000E+00
  0.00000000E+00
  0.00000000E+00
  0.00000000E+00
  0.00000000E+00
  0.00000000E+00
  0.00000000E+00
  0.00000000E+00
  0.00000000E+00
  0.00000000E+00
  0.00000000E+00
  0.00000000E+00
  0.00000000E+00
  0.00000000E+00
  0.00000000E+00
  0.00000000E+00
  0.00000000E+00
  0.00000000E+00
  0.00000000E+00
  0.00000000E+00
  0.00000000E+00
  0.00000000E+00
  0.00000000E+00
  0.00000000E+00
  0.00000000E+00
  0.00000000E+00
  0.00000000E+00
  0.00000000E+00
  0.00000000E+00
  0.00000000E+00
  0.00000000E+00
  0.00000000E+00
  0.00000000E+00
  0.00000000E+00
  0.00000000E+00
  0.00000000E+00
  0.00000000E+00
  0.00000000E+00
  0.00000000E+00
  0.00000000E+00
  0.00000000E+00
  0.00000000E+00
  0.00000000E+00
  0.00000000E+00
  0.00000000E+00
  0.00000000E+00
  0.00000000E+00
  0.00000000E+00
  0.00000000E+00
  0.00000000E+00
POINT_DATA      153
VECTORS Deslocamentos float
  0.98064344E-06  0.00000000E+00  0.00000000E+00
  0.97592138E-06  0.96119866E-07  0.00000000E+00
  0.96180065E-06  0.19131404E-06  0.00000000E+00
  0.93841727E-06  0.28466576E-06  0.00000000E+00
  0.90599641E-06  0.37527600E-06  0.00000000E+00
  0.86485030E-06  0.46227212E-06  0.00000000E+00
  0.81537522E-06  0.54481631E-06  0.00000000E+00
  0.75804763E-06  0.62211362E-06  0.00000000E+00
  0.69341963E-06  0.69341963E-06  0.00000000E+00
  0.62211362E-06  0.75804763E-06  0.00000000E+00
  0.54481631E-06  0.81537522E-06  0.00000000E+00
  0.46227212E-06  0.86485030E-06  0.00000000E+00
  0.37527600E-06  0.90599641E-06  0.00000000E+00
  0.28466576E-06  0.93841727E-06  0.00000000E+00
  0.19131404E-06  0.96180065E-06  0.00000000E+00
  0.96119866E-07  0.97592138E-06  0.00000000E+00
  0.00000000E+00  0.98064344E-06  0.00000000E+00
  0.89930003E-06  0.00000000E+00  0.00000000E+00
  0.89496965E-06  0.88146817E-07  0.00000000E+00
  0.88202023E-06  0.17544473E-06  0.00000000E+00
  0.86057647E-06  0.26105302E-06  0.00000000E+00
  0.83084489E-06  0.34414722E-06  0.00000000E+00
  0.79311182E-06  0.42392710E-06  0.00000000E+00
  0.74774065E-06  0.49962433E-06  0.00000000E+00
  0.69516832E-06  0.57050990E-06  0.00000000E+00
  0.63590115E-06  0.63590115E-06  0.00000000E+00
  0.57050990E-06  0.69516832E-06  0.00000000E+00
  0.49962433E-06  0.74774065E-06  0.00000000E+00
  0.42392710E-06  0.79311182E-06  0.00000000E+00
  0.34414722E-06  0.83084489E-06  0.00000000E+00
  0.26105302E-06  0.86057647E-06  0.00000000E+00
  0.17544473E-06  0.88202023E-06  0.00000000E+00
  0.88146817E-07  0.89496965E-06  0.00000000E+00
  0.00000000E+00  0.89930003E-06  0.00000000E+00
  0.83711212E-06  0.00000000E+00  0.00000000E+00
  0.83308120E-06  0.82051338E-07  0.00000000E+00
  0.82102725E-06  0.16331248E-06  0.00000000E+00
  0.80106636E-06  0.24300082E-06  0.00000000E+00
  0.77339076E-06  0.32034894E-06  0.00000000E+00
  0.73826698E-06  0.39461192E-06  0.00000000E+00
  0.69603329E-06  0.46507458E-06  0.00000000E+00
  0.64709642E-06  0.53105831E-06  0.00000000E+00
  0.59192766E-06  0.59192766E-06  0.00000000E+00
  0.53105831E-06  0.64709642E-06  0.00000000E+00
  0.46507458E-06  0.69603329E-06  0.00000000E+00
  0.39461192E-06  0.73826698E-06  0.00000000E+00
  0.32034894E-06  0.77339076E-06  0.00000000E+00
  0.24300082E-06  0.80106636E-06  0.00000000E+00
  0.16331248E-06  0.82102725E-06  0.00000000E+00
  0.82051338E-07  0.83308120E-06  0.00000000E+00
  0.00000000E+00  0.83711212E-06  0.00000000E+00
  0.78886373E-06  0.00000000E+00  0.00000000E+00
  0.78506514E-06  0.77322168E-07  0.00000000E+00
  0.77370594E-06  0.15389968E-06  0.00000000E+00
  0.75489553E-06  0.22899506E-06  0.00000000E+00
  0.72881506E-06  0.30188508E-06  0.00000000E+00
  0.69571570E-06  0.37186779E-06  0.00000000E+00
  0.65591622E-06  0.43826921E-06  0.00000000E+00
  0.60979991E-06  0.50044985E-06  0.00000000E+00
  0.55781089E-06  0.55781089E-06  0.00000000E+00
  0.50044985E-06  0.60979991E-06  0.00000000E+00
  0.43826921E-06  0.65591622E-06  0.00000000E+00
  0.37186779E-06  0.69571570E-06  0.00000000E+00
  0.30188508E-06  0.72881506E-06  0.00000000E+00
  0.22899506E-06  0.75489553E-06  0.00000000E+00
  0.15389968E-06  0.77370594E-06  0.00000000E+00
  0.77322168E-07  0.78506514E-06  0.00000000E+00
  0.00000000E+00  0.78886373E-06  0.00000000E+00
  0.75107455E-06  0.00000000E+00  0.00000000E+00
  0.74745792E-06  0.73618180E-07  0.00000000E+00
  0.73664286E-06  0.14652738E-06  0.00000000E+00
  0.71873353E-06  0.21802543E-06  0.00000000E+00
  0.69390241E-06  0.28742379E-06  0.00000000E+00
  0.66238862E-06  0.35405409E-06  0.00000000E+00
  0.62449567E-06  0.41727466E-06  0.00000000E+00
  0.58058848E-06  0.47647665E-06  0.00000000E+00
  0.53108991E-06  0.53108991E-06  0.00000000E+00
  0.47647665E-06  0.58058848E-06  0.00000000E+00
  0.41727466E-06  0.62449567E-06  0.00000000E+00
  0.35405409E-06  0.66238862E-06  0.00000000E+00
  0.28742379E-06  0.69390241E-06  0.00000000E+00
  0.21802543E-06  0.71873353E-06  0.00000000E+00
  0.14652738E-06  0.73664286E-06  0.00000000E+00
  0.73618180E-07  0.74745792E-06  0.00000000E+00
  0.00000000E+00  0.75107455E-06  0.00000000E+00
  0.72133358E-06  0.00000000E+00  0.00000000E+00
  0.71786016E-06  0.70703055E-07  0.00000000E+00
  0.70747336E-06  0.14072520E-06  0.00000000E+00
  0.69027320E-06  0.20939209E-06  0.00000000E+00
  0.66642533E-06  0.27604241E-06  0.00000000E+00
  0.63615943E-06  0.34003430E-06  0.00000000E+00
  0.59976695E-06  0.40075147E-06  0.00000000E+00
  0.55759840E-06  0.45760918E-06  0.00000000E+00
  0.51005987E-06  0.51005987E-06  0.00000000E+00
  0.45760918E-06  0.55759840E-06  0.00000000E+00
  0.40075147E-06  0.59976695E-06  0.00000000E+00
  0.34003430E-06  0.63615943E-06  0.00000000E+00
  0.27604241E-06  0.66642533E-06  0.00000000E+00
  0.20939209E-06  0.69027320E-06  0.00000000E+00
  0.14072520E-06  0.70747336E-06  0.00000000E+00
  0.70703055E-07  0.71786016E-06  0.00000000E+00
  0.00000000E+00  0.72133358E-06  0.00000000E+00
  0.69791785E-06  0.00000000E+00  0.00000000E+00
  0.69455718E-06  0.68407912E-07  0.00000000E+00
  0.68450755E-06  0.13615702E-06  0.00000000E+00
  0.66786573E-06  0.20259486E-06  0.00000000E+00
  0.64479201E-06  0.26708160E-06  0.00000000E+00
  0.61550859E-06  0.32899619E-06  0.00000000E+00
  0.58029748E-06  0.38774238E-06  0.00000000E+00
  0.53949779E-06  0.44275439E-06  0.00000000E+00
  0.49350244E-06  0.49350244E-06  0.00000000E+00
  0.44275439E-06  0.53949779E-06  0.00000000E+00
  0.38774238E-06  0.58029748E-06  0.00000000E+00
  0.32899619E-06  0.61550859E-06  0.00000000E+00
  0.26708160E-06  0.64479201E-06  0.00000000E+00
  0.20259486E-06  0.66786573E-06  0.00000000E+00
  0.13615702E-06  0.68450755E-06  0.00000000E+00
  0.68407912E-07  0.69455718E-06  0.00000000E+00
  0.00000000E+00  0.69791785E-06  0.00000000E+00
  0.67956333E-06  0.00000000E+00  0.00000000E+00
  0.67629104E-06  0.66608854E-07  0.00000000E+00
  0.66650570E-06  0.13257623E-06  0.00000000E+00
  0.65030155E-06  0.19726682E-06  0.00000000E+00
  0.62783464E-06  0.26005763E-06  0.00000000E+00
  0.59932135E-06  0.32034393E-06  0.00000000E+00
  0.56503626E-06  0.37754515E-06  0.00000000E+00
  0.52530955E-06  0.43111041E-06  0.00000000E+00
  0.48052383E-06  0.48052383E-06  0.00000000E+00
  0.43111041E-06  0.52530955E-06  0.00000000E+00
  0.37754515E-06  0.56503626E-06  0.00000000E+00
  0.32034393E-06  0.59932135E-06  0.00000000E+00
  0.26005763E-06  0.62783464E-06  0.00000000E+00
  0.19726682E-06  0.65030155E-06  0.00000000E+00
  0.13257623E-06  0.66650570E-06  0.00000000E+00
  0.66608854E-07  0.67629104E-06  0.00000000E+00
  0.00000000E+00  0.67956333E-06  0.00000000E+00