# vtk DataFile Version 2.0
MEF - Elasticidade Plana 2D
ASCII
DATASET UNSTRUCTURED_GRID
POINTS       45 float
  0.10000000E+01  0.00000000E+00  0.00000000E+00
  0.98078528E+00  0.19509032E+00  0.00000000E+00
  0.92387953E+00  0.38268343E+00  0.00000000E+00
  0.83146961E+00  0.55557023E+00  0.00000000E+00
  0.70710678E+00  0.70710678E+00  0.00000000E+00
  0.55557023E+00  0.83146961E+00  0.00000000E+00
  0.38268343E+00  0.92387953E+00  0.00000000E+00
  0.19509032E+00  0.98078528E+00  0.00000000E+00
  0.00000000E+00  0.10000000E+01  0.00000000E+00
  0.12500000E+01  0.00000000E+00  0.00000000E+00
  0.12259816E+01  0.24386290E+00  0.00000000E+00
  0.11548494E+01  0.47835429E+00  0.00000000E+00
  0.10393370E+01  0.69446279E+00  0.00000000E+00
  0.88388348E+00  0.88388348E+00  0.00000000E+00
  0.69446279E+00  0.10393370E+01  0.00000000E+00
  0.47835429E+00  0.11548494E+01  0.00000000E+00
  0.24386290E+00  0.12259816E+01  0.00000000E+00
  0.00000000E+00  0.12500000E+01  0.00000000E+00
  0.15000000E+01  0.00000000E+00  0.00000000E+00
  0.14711779E+01  0.29263548E+00  0.00000000E+00
  0.13858193E+01  0.57402515E+00  0.00000000E+00
  0.12472044E+01  0.83335535E+00  0.00000000E+00
  0.10606602E+01  0.10606602E+01  0.00000000E+00
  0.83335535E+00  0.12472044E+01  0.00000000E+00
  0.57402515E+00  0.13858193E+01  0.00000000E+00
  0.29263548E+00  0.14711779E+01  0.00000000E+00
  0.00000000E+00  0.15000000E+01  0.00000000E+00
  0.17500000E+01  0.00000000E+00  0.00000000E+00
  0.17163742E+01  0.34140806E+00  0.00000000E+00
  0.16167892E+01  0.66969601E+00  0.00000000E+00
  0.14550718E+01  0.97224791E+00  0.00000000E+00
  0.12374369E+01  0.12374369E+01  0.00000000E+00
  0.97224791E+00  0.14550718E+01  0.00000000E+00
  0.66969601E+00  0.16167892E+01  0.00000000E+00
  0.34140806E+00  0.17163742E+01  0.00000000E+00
  0.00000000E+00  0.17500000E+01  0.00000000E+00
  0.20000000E+01  0.00000000E+00  0.00000000E+00
  0.19615706E+01  0.39018064E+00  0.00000000E+00
  0.18477591E+01  0.76536686E+00  0.00000000E+00
  0.16629392E+01  0.11111405E+01  0.00000000E+00
  0.14142136E+01  0.14142136E+01  0.00000000E+00
  0.11111405E+01  0.16629392E+01  0.00000000E+00
  0.76536686E+00  0.18477591E+01  0.00000000E+00
  0.39018064E+00  0.19615706E+01  0.00000000E+00
  0.00000000E+00  0.20000000E+01  0.00000000E+00
CELLS       32     160
       4       0       9      10       1
       4       1      10      11       2
       4       2      11      12       3
       4       3      12      13       4
       4       4      13      14       5
       4       5      14      15       6
       4       6      15      16       7
       4       7      16      17       8
       4       9      18      19      10
       4      10      19      20      11
       4      11      20      21      12
       4      12      21      22      13
       4      13      22      23      14
       4      14      23      24      15
       4      15      24      25      16
       4      16      25      26      17
       4      18      27      28      19
       4      19      28      29      20
       4      20      29      30      21
       4      21      30      31      22
       4      22      31      32      23
       4      23      32      33      24
       4      24      33      34      25
       4      25      34      35      26
       4      27      36      37      28
       4      28      37      38      29
       4      29      38      39      30
       4      30      39      40      31
       4      31      40      41      32
       4      32      41      42      33
       4      33      42      43      34
       4      34      43      44      35
CELL_TYPES       32
 9
 9
 9
 9
 9
 9
 9
 9
 9
 9
 9
 9
 9
 9
 9
 9
 9
 9
 9
 9
 9
 9
 9
 9
 9
 9
 9
 9
 9
 9
 9
 9
CELL_DATA       32
SCALARS sigma_r float 1
LOOKUP_TABLE default
 -0.71701537E+02
 -0.71701536E+02
 -0.71701538E+02
 -0.71701538E+02
 -0.71701538E+02
 -0.71701538E+02
 -0.71701536E+02
 -0.71701537E+02
 -0.36920878E+02
 -0.36920878E+02
 -0.36920877E+02
 -0.36920879E+02
 -0.36920879E+02
 -0.36920877E+02
 -0.36920878E+02
 -0.36920878E+02
 -0.16966678E+02
 -0.16966674E+02
 -0.16966674E+02
 -0.16966674E+02
 -0.16966674E+02
 -0.16966674E+02
 -0.16966674E+02
 -0.16966678E+02
 -0.44653722E+01
 -0.44653706E+01
 -0.44653702E+01
 -0.44653708E+01
 -0.44653708E+01
 -0.44653702E+01
 -0.44653706E+01
 -0.44653722E+01
SCALARS sigma_theta float 1
LOOKUP_TABLE default
  0.13883952E+03
  0.13883952E+03
  0.13883952E+03
  0.13883952E+03
  0.13883952E+03
  0.13883952E+03
  0.13883952E+03
  0.13883952E+03
  0.10363157E+03
  0.10363157E+03
  0.10363157E+03
  0.10363156E+03
  0.10363156E+03
  0.10363157E+03
  0.10363157E+03
  0.10363157E+03
  0.83506695E+02
  0.83506698E+02
  0.83506698E+02
  0.83506696E+02
  0.83506696E+02
  0.83506698E+02
  0.83506698E+02
  0.83506695E+02
  0.70926720E+02
  0.70926726E+02
  0.70926725E+02
  0.70926722E+02
  0.70926722E+02
  0.70926725E+02
  0.70926726E+02
  0.70926720E+02
SCALARS tau_rtheta float 1
LOOKUP_TABLE default
 -0.19905095E-06
 -0.24661495E-05
 -0.19351252E-05
 -0.27486804E-06
  0.27482978E-06
  0.19351022E-05
  0.24661438E-05
  0.19905096E-06
  0.33940665E-06
 -0.65037503E-06
  0.11707082E-05
  0.63076165E-07
 -0.63008862E-07
 -0.11706899E-05
  0.65035569E-06
 -0.33942044E-06
  0.24231320E-05
 -0.17244995E-05
  0.15521060E-05
 -0.11849926E-05
  0.11849086E-05
 -0.15520943E-05
  0.17245688E-05
 -0.24230965E-05
  0.23125645E-05
 -0.38655832E-05
  0.17312052E-05
 -0.18730116E-05
  0.18730429E-05
 -0.17312884E-05
  0.38654591E-05
 -0.23126166E-05
SCALARS sigma_z float 1
LOOKUP_TABLE default
  0.00000000E+00
  0.00000000E+00
  0.00000000E+00
  0.00000000E+00
  0.00000000E+00
  0.00000000E+00
  0.00000000E+00
  0.00000000E+00
  0.00000000E+00
  0.00000000E+00
  0.00000000E+00
  0.00000000E+00
  0.00000000E+00
  0.00000000E+00
  0.00000000E+00
  0.00000000E+00
  0.00000000E+00
  0.00000000E+00
  0.00000000E+00
  0.00000000E+00
  0.00000000E+00
  0.00000000E+00
  0.00000000E+00
  0.00000000E+00
  0.00000000E+00
  0.00000000E+00
  0.00000000E+00
  0.00000000E+00
  0.00000000E+00
  0.00000000E+00
  0.00000000E+00
  0.00000000E+00
POINT_DATA       45
VECTORS Deslocamentos float
  0.97281454E-06  0.00000000E+00  0.00000000E+00
  0.95412218E-06  0.18978670E-06  0.00000000E+00
  0.89876343E-06  0.37228001E-06  0.00000000E+00
  0.80886572E-06  0.54046680E-06  0.00000000E+00
  0.68788375E-06  0.68788375E-06  0.00000000E+00
  0.54046680E-06  0.80886572E-06  0.00000000E+00
  0.37228001E-06  0.89876343E-06  0.00000000E+00
  0.18978670E-06  0.95412218E-06  0.00000000E+00
  0.00000000E+00  0.97281454E-06  0.00000000E+00
  0.83112279E-06  0.00000000E+00  0.00000000E+00
  0.81515300E-06  0.16214401E-06  0.00000000E+00
  0.76785734E-06  0.31805692E-06  0.00000000E+00
  0.69105334E-06  0.46174708E-06  0.00000000E+00
  0.58769256E-06  0.58769256E-06  0.00000000E+00
  0.46174708E-06  0.69105334E-06  0.00000000E+00
  0.31805692E-06  0.76785734E-06  0.00000000E+00
  0.16214401E-06  0.81515300E-06  0.00000000E+00
  0.00000000E+00  0.83112279E-06  0.00000000E+00
  0.74610986E-06  0.00000000E+00  0.00000000E+00
  0.73177357E-06  0.14555881E-06  0.00000000E+00
  0.68931562E-06  0.28552388E-06  0.00000000E+00
  0.62036767E-06  0.41451643E-06  0.00000000E+00
  0.52757934E-06  0.52757934E-06  0.00000000E+00
  0.41451643E-06  0.62036767E-06  0.00000000E+00
  0.28552388E-06  0.68931562E-06  0.00000000E+00
  0.14555881E-06  0.73177357E-06  0.00000000E+00
  0.00000000E+00  0.74610986E-06  0.00000000E+00
  0.69358649E-06  0.00000000E+00  0.00000000E+00
  0.68025944E-06  0.13531201E-06  0.00000000E+00
  0.64079037E-06  0.26542406E-06  0.00000000E+00
  0.57669610E-06  0.38533602E-06  0.00000000E+00
  0.49043972E-06  0.49043972E-06  0.00000000E+00
  0.38533602E-06  0.57669610E-06  0.00000000E+00
  0.26542406E-06  0.64079037E-06  0.00000000E+00
  0.13531201E-06  0.68025944E-06  0.00000000E+00
  0.00000000E+00  0.69358649E-06  0.00000000E+00
  0.66140726E-06  0.00000000E+00  0.00000000E+00
  0.64869852E-06  0.12903415E-06  0.00000000E+00
  0.61106063E-06  0.25310960E-06  0.00000000E+00
  0.54994005E-06  0.36745820E-06  0.00000000E+00
  0.46768556E-06  0.46768556E-06  0.00000000E+00
  0.36745820E-06  0.54994005E-06  0.00000000E+00
  0.25310960E-06  0.61106063E-06  0.00000000E+00
  0.12903415E-06  0.64869852E-06  0.00000000E+00
  0.00000000E+00  0.66140726E-06  0.00000000E+00
SCALARS u_r float 1
LOOKUP_TABLE default
  0.97281454E-06
  0.97281453E-06
  0.97281453E-06
  0.97281453E-06
  0.97281453E-06
  0.97281453E-06
  0.97281453E-06
  0.97281453E-06
  0.97281454E-06
  0.83112279E-06
  0.83112279E-06
  0.83112279E-06
  0.83112279E-06
  0.83112279E-06
  0.83112279E-06
  0.83112279E-06
  0.83112279E-06
  0.83112279E-06
  0.74610986E-06
  0.74610986E-06
  0.74610986E-06
  0.74610986E-06
  0.74610986E-06
  0.74610986E-06
  0.74610986E-06
  0.74610986E-06
  0.74610986E-06
  0.69358649E-06
  0.69358651E-06
  0.69358650E-06
  0.69358651E-06
  0.69358650E-06
  0.69358651E-06
  0.69358650E-06
  0.69358651E-06
  0.69358649E-06
  0.66140726E-06
  0.66140727E-06
  0.66140726E-06
  0.66140727E-06
  0.66140726E-06
  0.66140727E-06
  0.66140726E-06
  0.66140727E-06
  0.66140726E-06
SCALARS u_theta float 1
LOOKUP_TABLE default
  0.00000000E+00
  0.53195313E-15
  0.62744654E-14
  0.30836810E-14
  0.15458351E-19
 -0.30836459E-14
 -0.62744431E-14
 -0.53193992E-15
  0.59565743E-22
  0.00000000E+00
 -0.49597141E-15
 -0.37823748E-14
  0.47284640E-15
 -0.21705219E-19
 -0.47287245E-15
  0.37823694E-14
  0.49597911E-15
  0.50889913E-22
  0.00000000E+00
 -0.17102918E-14
  0.29415421E-15
  0.15992103E-14
  0.38487060E-19
 -0.15991792E-14
 -0.29419794E-15
  0.17102404E-14
  0.45684544E-22
  0.00000000E+00
 -0.11596327E-14
  0.10902706E-14
  0.22351342E-14
 -0.42616345E-19
 -0.22351175E-14
 -0.10901215E-14
  0.11597577E-14
  0.42468521E-22
  0.00000000E+00
 -0.89100579E-14
 -0.16220495E-14
  0.25951600E-14
 -0.25516868E-19
 -0.25953260E-14
  0.16217840E-14
  0.89098956E-14
  0.40498176E-22
